 Gaussian 09, Revision B.01,
 Gaussian 09:  EM64L-G09RevB.01 12-Aug-2010

 ----------------------------------------------------------------------
 #p Temperature=358.15 int=(grid=ultrafine) CPHF=(grid=fine) freq rb3ly
 p/aug-cc-pvdz
 ----------------------------------------------------------------------

 ------------------------
 BF3-RB3LYP-aug-cc-pVDZ--
 ------------------------
 Symbolic Z-matrix:
 Charge =  0 Multiplicity = 1

                         Standard orientation:
 ---------------------------------------------------------------------
 Center     Atomic      Atomic             Coordinates (Angstroms)
 Number     Number       Type             X           Y           Z
 ---------------------------------------------------------------------
      1          5           0        0.000000    0.000000    0.000000
      2          9           0        0.000000    0.000000    1.327160
      3          9           0        0.000000    1.149360   -0.663580
      4          9           0        0.000000   -1.149360   -0.663580
 ---------------------------------------------------------------------

 SCF Done:  E(RB3LYP) =  -324.596129269     A.U. after    8 cycles

 The electronic state is 1-A1.
 Alpha  occ. eigenvalues --  -24.75463 -24.75458 -24.75458  -6.94700  -1.28694
 Alpha  occ. eigenvalues --   -1.24995  -1.24995  -0.62391  -0.58466  -0.58466
 Alpha  occ. eigenvalues --   -0.54199  -0.47920  -0.47920  -0.47027  -0.47027
 Alpha  occ. eigenvalues --   -0.44008
 Alpha virt. eigenvalues --   -0.02005  -0.00106   0.02458   0.02458   0.03679
 Alpha virt. eigenvalues --    0.10644   0.13846   0.13846   0.18150   0.18150
 Alpha virt. eigenvalues --    0.18396   0.18396   0.19064   0.19974   0.25680

 Mulliken atomic charges:
              1
     1  B    1.038750
     2  F   -0.346247
     3  F   -0.346252
     4  F   -0.346252
 Sum of Mulliken atomic charges =   0.00000

 Dipole moment (field-independent basis, Debye):
    X=              0.0000    Y=              0.0000    Z=              0.0000  Tot=              0.0000
 Quadrupole moment (field-independent basis, Debye-Ang):
   XX=            -18.2574   YY=            -22.0971   ZZ=            -22.0970
   XY=              0.0000   XZ=              0.0000   YZ=              0.0000

  Exact polarizability:  13.252   0.000  17.486   0.000   0.000  17.486
 Approx polarizability:  16.964   0.000  21.493   0.000   0.000  21.493

                     1                      2                      3
                    A1                     B2                     B1
 Frequencies --   454.7593               454.7684               699.8211
 Red. masses --    17.8559                17.8559                11.8135
 Frc consts  --     2.1757                 2.1758                 3.4088
 IR Inten    --    12.3227                12.3216                90.0107

                     4                      5                      6
                    A1                     B2                     A1
 Frequencies --   851.9426              1410.1741              1410.2023
 Red. masses --    18.9984                12.3030                12.3031
 Frc consts  --     8.1243                14.4148                14.4154
 IR Inten    --     0.0000               430.8930               430.9068

 - Thermochemistry -
 -------------------
 Temperature   358.150 Kelvin.  Pressure   1.00000 Atm.
 Atom     1 has atomic number  5 and mass  11.00931

 Molecular mass:    68.00452 amu.
 Principal axes and moments of inertia in atomic units:
                           1         2         3
     Eigenvalues --   179.24732 179.24910 358.49642
           X            0.00000   0.00000   1.00000
           Y            1.00000   0.00000   0.00000
           Z            0.00000   1.00000   0.00000
 This molecule is an asymmetric top.
 Rotational symmetry number  2.
 Rotational temperatures (Kelvin)      0.48321     0.48320     0.24160
 Rotational constants (GHZ):          10.06844    10.06834     5.03420
 Zero-point vibrational energy      31591.4 (Joules/Mol)
                                    7.55052 (Kcal/Mol)
 Warning -- explicit consideration of   3 degrees of freedom as
           vibrations may cause significant error
 Vibrational temperatures:    654.30   654.31  1006.89  1225.75  2028.92
          (Kelvin)           2028.96

 Zero-point correction=                           0.012033 (Hartree/Particle)
 Thermal correction to Energy=                    0.016609
 Thermal correction to Enthalpy=                  0.017744
 Thermal correction to Gibbs Free Energy=        -0.019677
 Sum of electronic and zero-point Energies=           -324.584097
 Sum of electronic and thermal Energies=              -324.579520
 Sum of electronic and thermal Enthalpies=            -324.578386
 Sum of electronic and thermal Free Energies=         -324.615807

                     E (Thermal)             CV                S
                      KCal/Mol        Cal/Mol-Kelvin    Cal/Mol-Kelvin
 Total                   10.423             11.319             65.565
 Electronic               0.000              0.000              0.000
 Translational            1.068              2.981             39.480
 Rotational               1.068              2.981             23.127
 Vibrational              8.287              5.357              2.958
 Vibration     1          0.899              1.516              1.045
 Vibration     2          0.899              1.516              1.045
 Vibration     3          1.128              1.069              0.481

 Optimization completed.
    -- Stationary point found.
 Normal termination of Gaussian 09 at Fri May  5 11:59:09 2017.
