 Gaussian 09, Revision B.01,
 Gaussian 09:  EM64L-G09RevB.01 12-Aug-2010

 ----------------------------------------------------------------------
 #p Temperature=358.15 int=(grid=ultrafine) CPHF=(grid=fine) freq rb3ly
 p/aug-cc-pvdz
 ----------------------------------------------------------------------

 -----------------------
 N2-RB3LYP-aug-cc-pVDZ--
 -----------------------
 Symbolic Z-matrix:
 Charge =  0 Multiplicity = 1

                         Standard orientation:
 ---------------------------------------------------------------------
 Center     Atomic      Atomic             Coordinates (Angstroms)
 Number     Number       Type             X           Y           Z
 ---------------------------------------------------------------------
      1          7           0        0.000000    0.000000    0.552200
      2          7           0        0.000000    0.000000   -0.552200
 ---------------------------------------------------------------------

 SCF Done:  E(RB3LYP) =  -109.542826299     A.U. after    8 cycles

 The electronic state is 1-SGG.
 Alpha  occ. eigenvalues --  -14.45021 -14.44870  -1.13496  -0.56325  -0.47190
 Alpha  occ. eigenvalues --   -0.47190  -0.43847
 Alpha virt. eigenvalues --   -0.03974  -0.03974   0.05707   0.06185   0.07961
 Alpha virt. eigenvalues --    0.07961   0.12528   0.15395   0.15395   0.25223
 Alpha virt. eigenvalues --    0.43089   0.43089   0.51530   0.54753   0.63664

 Mulliken atomic charges:
              1
     1  N    0.000000
     2  N    0.000000
 Sum of Mulliken atomic charges =   0.00000

 Dipole moment (field-independent basis, Debye):
    X=              0.0000    Y=              0.0000    Z=              0.0000  Tot=              0.0000
 Quadrupole moment (field-independent basis, Debye-Ang):
   XX=            -10.3809   YY=            -10.3809   ZZ=            -11.8280
   XY=              0.0000   XZ=              0.0000   YZ=              0.0000

  Exact polarizability:  10.123   0.000  10.123   0.000   0.000  15.269
 Approx polarizability:  13.265   0.000  13.265   0.000   0.000  28.485

                     1
                    SGG
 Frequencies --  2444.0114
 Red. masses --    14.0031
 Frc consts  --    49.2811
 IR Inten    --     0.0000

 - Thermochemistry -
 -------------------
 Temperature   358.150 Kelvin.  Pressure   1.00000 Atm.
 Atom     1 has atomic number  7 and mass  14.00307

 Molecular mass:    28.00615 amu.
 Principal axes and moments of inertia in atomic units:
                           1         2         3
     Eigenvalues --     0.00000  30.49607  30.49607
           X            0.00000   1.00000   0.00000
           Y            0.00000   0.00000   1.00000
           Z            1.00000   0.00000   0.00000
 This molecule is a prolate symmetric top.
 Rotational symmetry number  2.
 Rotational temperature (Kelvin)      2.84016
 Rotational constant (GHZ):          59.179462
 Zero-point vibrational energy      14618.4 (Joules/Mol)
                                    3.49389 (Kcal/Mol)
 Vibrational temperatures:   3516.38
          (Kelvin)

 Zero-point correction=                           0.005568 (Hartree/Particle)
 Thermal correction to Energy=                    0.008404
 Thermal correction to Enthalpy=                  0.009538
 Thermal correction to Gibbs Free Energy=        -0.017320
 Sum of electronic and zero-point Energies=           -109.537258
 Sum of electronic and thermal Energies=              -109.534422
 Sum of electronic and thermal Enthalpies=            -109.533288
 Sum of electronic and thermal Free Energies=         -109.560147

                     E (Thermal)             CV                S
                      KCal/Mol        Cal/Mol-Kelvin    Cal/Mol-Kelvin
 Total                    5.274              4.978             47.058
 Electronic               0.000              0.000              0.000
 Translational            1.068              2.981             36.835
 Rotational               0.712              1.987             10.222
 Vibrational              3.494              0.010              0.001

 Optimization completed.
    -- Stationary point found.
 Normal termination of Gaussian 09 at Wed May 10 06:20:40 2017.
