 Gaussian 09, Revision B.01,
 Gaussian 09:  EM64L-G09RevB.01 12-Aug-2010

 ----------------------------------------------------------------------
 #p Temperature=353.15 int=(grid=ultrafine) CPHF=(grid=fine) freq rb3ly
 p/aug-cc-pvdz
 ----------------------------------------------------------------------

 ------------------------------------
 m-NO2-Ph-N2-OTf-RB3LYP-aug-cc-pVDZ--
 ------------------------------------
 Symbolic Z-matrix:
 Charge =  0 Multiplicity = 1

                         Standard orientation:
 ---------------------------------------------------------------------
 Center     Atomic      Atomic             Coordinates (Angstroms)
 Number     Number       Type             X           Y           Z
 ---------------------------------------------------------------------
      1          6           0       -1.731731   -1.607740   -0.707430
      2          6           0       -0.881841   -0.507890   -0.587150
      3          6           0       -1.464121    0.703690   -0.177880
      4          6           0       -2.826190    0.873931    0.098980
      5          6           0       -3.618331   -0.257809   -0.030790
      6          6           0       -3.096761   -1.493729   -0.427610
      7          1           0       -1.319051   -2.564800   -1.021950
      8          1           0        0.188799   -0.533900   -0.819810
      9          1           0       -3.251640    1.825511    0.407050
     10          7           0       -0.628590    1.814040   -0.040420
     11          7           0        0.206530    2.540830    0.112910
     12         16           0        2.754509    0.679610   -0.261660
     13          6           0        3.280329   -1.019920    0.402390
     14          8           0        1.860749    0.333960   -1.430790
     15          8           0        4.019340    1.384710   -0.571310
     16          8           0        1.947750    1.232400    0.909500
     17          9           0        2.182699   -1.766740    0.684050
     18          9           0        4.006669   -1.677390   -0.514110
     19          9           0        4.003409   -0.897120    1.523260
     20          1           0       -3.767441   -2.345939   -0.514260
     21          7           0       -5.067461   -0.137399    0.259160
     22          8           0       -5.747931   -1.147319    0.135880
     23          8           0       -5.479820    0.965141    0.600740
 ---------------------------------------------------------------------

 SCF Done:  E(RB3LYP) =  -1507.15485615     A.U. after   18 cycles

 The electronic state is 1-A.
 Alpha  occ. eigenvalues --  -89.11621 -24.75277 -24.74931 -24.74926 -19.24168
 Alpha  occ. eigenvalues --  -19.24105 -19.14061 -19.13404 -19.12847 -14.63042
 Alpha  occ. eigenvalues --  -14.57782 -14.56476 -10.44556 -10.36215 -10.32875
 Alpha  occ. eigenvalues --  -10.31186 -10.29690 -10.29300 -10.28459  -8.14240
 Alpha  occ. eigenvalues --   -6.10588  -6.10556  -6.10530  -1.32516  -1.29312
 Alpha  occ. eigenvalues --   -1.24133  -1.24027  -1.23981  -1.12171  -1.11025
 Alpha  occ. eigenvalues --   -0.99580  -0.98354  -0.97736  -0.92784  -0.87332
 Alpha  occ. eigenvalues --   -0.80236  -0.77681  -0.73400  -0.69848  -0.64824
 Alpha  occ. eigenvalues --   -0.64478  -0.61366  -0.60325  -0.60219  -0.60072
 Alpha  occ. eigenvalues --   -0.59832  -0.59376  -0.58059  -0.57012  -0.56277
 Alpha  occ. eigenvalues --   -0.54788  -0.53750  -0.52870  -0.48301  -0.47939
 Alpha  occ. eigenvalues --   -0.47399  -0.47025  -0.45914  -0.45743  -0.45464
 Alpha  occ. eigenvalues --   -0.44857  -0.43971  -0.43823  -0.42042  -0.37637
 Alpha  occ. eigenvalues --   -0.37268  -0.36730  -0.35783  -0.35721  -0.33958
 Alpha  occ. eigenvalues --   -0.33229  -0.30745  -0.30587  -0.29489  -0.26796
 Alpha virt. eigenvalues --   -0.17354  -0.15710  -0.14566  -0.08882  -0.05851
 Alpha virt. eigenvalues --   -0.04161  -0.02271  -0.01150  -0.00204   0.00728
 Alpha virt. eigenvalues --    0.01582   0.02694   0.03375   0.03911   0.04560

 Mulliken atomic charges:
              1
     1  C    0.788891
     2  C    1.101162
     3  C    0.480251
     4  C    0.908276
     5  C    0.520855
     6  C    1.030849
     7  H   -0.841374
     8  H   -0.823796
     9  H   -0.827433
    10  N    0.363394
    11  N   -0.534845
    12  S    2.333611
    13  C    1.077202
    14  O   -0.957900
    15  O   -0.891330
    16  O   -0.932226
    17  F   -0.502962
    18  F   -0.422331
    19  F   -0.420702
    20  H   -0.830887
    21  N    0.684234
    22  O   -0.660071
    23  O   -0.642869
 Sum of Mulliken atomic charges =   0.00000

 Dipole moment (field-independent basis, Debye):
    X=             -9.3244    Y=             -1.2765    Z=             -0.3565  Tot=              9.4182
 Quadrupole moment (field-independent basis, Debye-Ang):
   XX=           -154.4930   YY=           -104.4268   ZZ=           -117.2876
   XY=             -7.3266   XZ=              6.9442   YZ=              2.3311

  Exact polarizability: 245.194  14.651 160.166  -4.358  10.218 100.716
 Approx polarizability: 336.938  36.208 305.755  -3.203  29.659 170.056

                     1                      2                      3
                     A                      A                      A
 Frequencies --    14.8428                22.4979                29.0897
 Red. masses --    12.8599                15.3949                 8.5109
 Frc consts  --     0.0017                 0.0046                 0.0042
 IR Inten    --     1.5165                 2.5375                 1.0078

                     4                      5                      6
                     A                      A                      A
 Frequencies --    44.5924                51.3376                57.1251
 Red. masses --    13.7068                11.6241                11.6630
 Frc consts  --     0.0161                 0.0181                 0.0224
 IR Inten    --     6.3984                 5.0652                 1.2064

                     7                      8                      9
                     A                      A                      A
 Frequencies --   109.2985               111.4762               143.6211
 Red. masses --    13.3106                14.3764                 6.8421
 Frc consts  --     0.0937                 0.1053                 0.0832
 IR Inten    --    24.9351                 3.0742                 0.7940

                    10                     11                     12
                     A                      A                      A
 Frequencies --   162.6202               182.9343               191.6206
 Red. masses --    12.3264                12.8695                 6.3467
 Frc consts  --     0.1921                 0.2537                 0.1373
 IR Inten    --    46.5023                 0.2641                 1.7520

                    13                     14                     15
                     A                      A                      A
 Frequencies --   209.6304               258.1651               279.7578
 Red. masses --    14.9682                 7.7469                17.4409
 Frc consts  --     0.3875                 0.3042                 0.8042
 IR Inten    --    53.0607                20.8270                 6.7034

                    16                     17                     18
                     A                      A                      A
 Frequencies --   314.3305               329.2342               382.2441
 Red. masses --    17.2831                17.0000                11.0445
 Frc consts  --     1.0061                 1.0857                 0.9508
 IR Inten    --     0.7009                23.6000                 7.1213

                    19                     20                     21
                     A                      A                      A
 Frequencies --   397.8170               430.5219               444.4025
 Red. masses --     5.0727                 3.6731                 9.5417
 Frc consts  --     0.4730                 0.4011                 1.1103
 IR Inten    --     9.5926                 4.3687                 1.9911

                    22                     23                     24
                     A                      A                      A
 Frequencies --   469.2084               480.0554               499.2783
 Red. masses --    16.3969                16.5765                 9.8208
 Frc consts  --     2.1269                 2.2507                 1.4424
 IR Inten    --    22.0346                57.1390                21.2851

                    25                     26                     27
                     A                      A                      A
 Frequencies --   538.3192               540.6646               552.5095
 Red. masses --    17.7901                17.8724                 6.7515
 Frc consts  --     3.0374                 3.0782                 1.2143
 IR Inten    --     1.5578                 8.6473                 9.8754

                    28                     29                     30
                     A                      A                      A
 Frequencies --   567.0852               587.2118               667.9749
 Red. masses --     7.0026                20.7173                 2.7622
 Frc consts  --     1.3268                 4.2089                 0.7261
 IR Inten    --     3.2724               134.2566                11.9741

                    31                     32                     33
                     A                      A                      A
 Frequencies --   675.1515               729.8785               753.8897
 Red. masses --     7.4295                17.9989                 4.3876
 Frc consts  --     1.9953                 5.6493                 1.4693
 IR Inten    --     7.8876                 1.6587                28.1556

                    34                     35                     36
                     A                      A                      A
 Frequencies --   797.0162               841.9691               906.6212
 Red. masses --    10.5356                 1.4027                 6.8085
 Frc consts  --     3.9431                 0.5859                 3.2973
 IR Inten    --    24.7313                11.1706                24.9943

                    37                     38                     39
                     A                      A                      A
 Frequencies --   921.1924               928.5436              1000.6728
 Red. masses --    15.0018                 1.5557                 2.4778
 Frc consts  --     7.5006                 0.7903                 1.4618
 IR Inten    --   274.1660                 9.3842                 5.3103

                    40                     41                     42
                     A                      A                      A
 Frequencies --  1012.5347              1042.3057              1075.3284
 Red. masses --     1.9659                 1.5684                 5.3224
 Frc consts  --     1.1875                 1.0039                 3.6261
 IR Inten    --     2.3302                18.4549               144.0774

                    43                     44                     45
                     A                      A                      A
 Frequencies --  1084.4234              1112.7280              1121.0292
 Red. masses --     1.6969                 1.7565                 7.3701
 Frc consts  --     1.1757                 1.2814                 5.4570
 IR Inten    --    47.6657                 1.3956               138.8282

                    46                     47                     48
                     A                      A                      A
 Frequencies --  1160.1490              1161.8269              1177.3233
 Red. masses --    13.5149                 6.4545                12.9435
 Frc consts  --    10.7174                 5.1333                10.5705
 IR Inten    --   143.2424                11.2183               277.4294

                    49                     50                     51
                     A                      A                      A
 Frequencies --  1192.8113              1223.9686              1297.7818
 Red. masses --     1.2067                12.5825                 1.4094
 Frc consts  --     1.0116                11.1060                 1.3986
 IR Inten    --   107.6191               507.5996                 2.1772

                    52                     53                     54
                     A                      A                      A
 Frequencies --  1374.7583              1385.8225              1471.5228
 Red. masses --     8.1986                13.7517                 2.4878
 Frc consts  --     9.1294                15.5604                 3.1740
 IR Inten    --     1.5778               270.3179                 2.8517

                    55                     56                     57
                     A                      A                      A
 Frequencies --  1473.3021              1596.4881              1618.8486
 Red. masses --     2.3970                 7.9681                 6.6436
 Frc consts  --     3.0655                11.9657                10.2581
 IR Inten    --    13.6021                71.3036                 7.6349

                    58                     59                     60
                     A                      A                      A
 Frequencies --  1649.7924              2300.1359              3100.3026
 Red. masses --     9.7120                13.9623                 1.1012
 Frc consts  --    15.5746                43.5225                 6.2364
 IR Inten    --   190.8667               183.0241               316.5714

                    61                     62                     63
                     A                      A                      A
 Frequencies --  3213.2253              3231.1028              3236.8984
 Red. masses --     1.0917                 1.0945                 1.0944
 Frc consts  --     6.6410                 6.7325                 6.7559
 IR Inten    --     2.5030                 9.3290                19.3710

 - Thermochemistry -
 -------------------
 Temperature   353.150 Kelvin.  Pressure   1.00000 Atm.
 Atom     1 has atomic number  6 and mass  12.00000

 Molecular mass:   298.98238 amu.
 Principal axes and moments of inertia in atomic units:
                           1         2         3
     Eigenvalues --  2187.98801********************
           X            0.99997   0.00727  -0.00101
           Y           -0.00725   0.99979   0.01943
           Z            0.00115  -0.01942   0.99981
 This molecule is an asymmetric top.
 Rotational symmetry number  1.
 Warning -- assumption of classical behavior for rotation
           may cause significant error
 Rotational temperatures (Kelvin)      0.03959     0.00709     0.00645
 Rotational constants (GHZ):           0.82484     0.14773     0.13431
 Zero-point vibrational energy     334588.4 (Joules/Mol)
                                   79.96855 (Kcal/Mol)
 Warning -- explicit consideration of  32 degrees of freedom as
           vibrations may cause significant error
 Vibrational temperatures:     21.36    32.37    41.85    64.16    73.86
          (Kelvin)             82.19   157.26   160.39   206.64   233.97
                              263.20   275.70   301.61   371.44   402.51
                              452.25   473.69   549.96   572.37   619.42
                              639.40   675.09   690.69   718.35   774.52
                              777.89   794.94   815.91   844.87   961.07
                              971.39  1050.13  1084.68  1146.73  1211.40
                             1304.42  1325.39  1335.97  1439.74  1456.81
                             1499.64  1547.16  1560.24  1600.97  1612.91
                             1669.19  1671.61  1693.90  1716.19  1761.02
                             1867.22  1977.97  1993.89  2117.19  2119.75
                             2296.99  2329.16  2373.68  3309.38  4460.64
                             4623.11  4648.83  4657.17

 Zero-point correction=                           0.127438 (Hartree/Particle)
 Thermal correction to Energy=                    0.151333
 Thermal correction to Enthalpy=                  0.152452
 Thermal correction to Gibbs Free Energy=         0.063447
 Sum of electronic and zero-point Energies=          -1507.027418
 Sum of electronic and thermal Energies=             -1507.003523
 Sum of electronic and thermal Enthalpies=           -1507.002404
 Sum of electronic and thermal Free Energies=        -1507.091409

                     E (Thermal)             CV                S
                      KCal/Mol        Cal/Mol-Kelvin    Cal/Mol-Kelvin
 Total                   94.963             70.382            158.151
 Electronic               0.000              0.000              0.000
 Translational            1.053              2.981             43.824
 Rotational               1.053              2.981             34.744
 Vibrational             92.858             64.420             79.583
 Vibration     1          0.702              1.987              7.563
 Vibration     2          0.702              1.986              6.737
 Vibration     3          0.703              1.985              6.227
 Vibration     4          0.704              1.982              5.379
 Vibration     5          0.704              1.980              5.100
 Vibration     6          0.705              1.978              4.889
 Vibration     7          0.713              1.955              3.611
 Vibration     8          0.714              1.953              3.573
 Vibration     9          0.722              1.931              3.080
 Vibration    10          0.727              1.916              2.841
 Vibration    11          0.734              1.898              2.617
 Vibration    12          0.737              1.889              2.529
 Vibration    13          0.744              1.871              2.360
 Vibration    14          0.765              1.814              1.976
 Vibration    15          0.776              1.785              1.831
 Vibration    16          0.795              1.737              1.626
 Vibration    17          0.804              1.714              1.546
 Vibration    18          0.838              1.630              1.296
 Vibration    19          0.849              1.604              1.232
 Vibration    20          0.873              1.547              1.107
 Vibration    21          0.884              1.523              1.058
 Vibration    22          0.904              1.478              0.977
 Vibration    23          0.912              1.459              0.943
 Vibration    24          0.929              1.423              0.887
 Vibration    25          0.963              1.351              0.782
 Vibration    26          0.965              1.347              0.776
 Vibration    27          0.976              1.324              0.748
 Vibration    28          0.989              1.297              0.713
 Vibration    29          1.008              1.259              0.669
 Vibration    30          1.089              1.109              0.516
 Vibration    31          1.097              1.096              0.504
 Vibration    32          1.156              0.998              0.423

 Optimization completed.
    -- Stationary point found.
 Normal termination of Gaussian 09 at Wed May  4 20:52:58 2005.
