 Gaussian 09, Revision B.01,
 Gaussian 09:  EM64L-G09RevB.01 12-Aug-2010

 ----------------------------------------------------------------------
 #p opt=(verytight,maxcycles=1000) int=(grid=ultrafine) CPHF=(grid=fine
 ) freq rb3lyp/aug-cc-pvdz
 ----------------------------------------------------------------------

 -----------------------------
 p-NO2-Ph-F-RB3LYP-aug-cc-pVDZ
 -----------------------------
 Symbolic Z-matrix:
 Charge =  0 Multiplicity = 1

 SCF Done:  E(RB3LYP) =  -536.056176439     A.U. after   14 cycles
 SCF Done:  E(RB3LYP) =  -536.059494268     A.U. after   15 cycles
 SCF Done:  E(RB3LYP) =  -536.061302763     A.U. after   15 cycles
 SCF Done:  E(RB3LYP) =  -536.061055870     A.U. after   15 cycles
 SCF Done:  E(RB3LYP) =  -536.062710525     A.U. after   15 cycles
 SCF Done:  E(RB3LYP) =  -536.063334377     A.U. after   15 cycles
 SCF Done:  E(RB3LYP) =  -536.063527680     A.U. after   15 cycles
 SCF Done:  E(RB3LYP) =  -536.063532355     A.U. after   15 cycles
 SCF Done:  E(RB3LYP) =  -536.063536897     A.U. after   15 cycles
 SCF Done:  E(RB3LYP) =  -536.063537210     A.U. after   18 cycles
 SCF Done:  E(RB3LYP) =  -536.063537220     A.U. after   18 cycles
 SCF Done:  E(RB3LYP) =  -536.063537221     A.U. after   19 cycles
 SCF Done:  E(RB3LYP) =  -536.063537221     A.U. after   19 cycles
 Optimization completed.
    -- Stationary point found.
 Normal termination of Gaussian 09 at Fri Apr 21 12:39:37 2017.

 ----------------------------------------------------------------------
 #P Geom=AllCheck Guess=TCheck SCRF=Check GenChk RB3LYP/Aug-CC-pVDZ Fre
 q
 ----------------------------------------------------------------------

 p-NO2-Ph-F-RB3LYP-aug-cc-pVDZ
 -----------------------------
 Redundant internal coordinates taken from checkpoint file:
 /home/ubuntu/g09/Gau-14827.chk
 Charge =  0 Multiplicity = 1

                         Standard orientation:
 ---------------------------------------------------------------------
 Center     Atomic      Atomic             Coordinates (Angstroms)
 Number     Number       Type             X           Y           Z
 ---------------------------------------------------------------------
      1          6           0       -0.000710   -1.222446    0.000000
      2          6           0       -1.394583   -1.224043    0.000000
      3          6           0       -2.060481    0.000000    0.000000
      4          6           0       -1.394583    1.224043    0.000000
      5          6           0       -0.000710    1.222446    0.000000
      6          6           0        0.675542    0.000000    0.000000
      7          1           0        0.565305   -2.150444    0.000000
      8          1           0       -1.963099   -2.152306   -0.000001
      9          1           0       -1.963099    2.152306    0.000001
     10          1           0        0.565305    2.150445    0.000000
     11          7           0        2.148570    0.000000    0.000000
     12          8           0        2.720541   -1.087789    0.000001
     13          8           0        2.720542    1.087788   -0.000001
     14          9           0       -3.413324    0.000000    0.000000
 ---------------------------------------------------------------------

 SCF Done:  E(RB3LYP) =  -536.063537221     A.U. after    2 cycles

 The electronic state is 1-A.
 Alpha  occ. eigenvalues --  -24.75225 -19.19494 -19.19494 -14.58356 -10.31572
 Alpha  occ. eigenvalues --  -10.26967 -10.24200 -10.24197 -10.23596 -10.23595
 Alpha  occ. eigenvalues --   -1.26223  -1.24520  -1.07231  -0.91530  -0.82812
 Alpha  occ. eigenvalues --   -0.80207  -0.72078  -0.66834  -0.62468  -0.58761
 Alpha  occ. eigenvalues --   -0.56697  -0.55005  -0.54363  -0.51639  -0.50126
 Alpha  occ. eigenvalues --   -0.49033  -0.47321  -0.45294  -0.43843  -0.40348
 Alpha  occ. eigenvalues --   -0.38876  -0.33090  -0.32860  -0.31060  -0.30329
 Alpha  occ. eigenvalues --   -0.29296
 Alpha virt. eigenvalues --   -0.11000  -0.05865  -0.02247  -0.01537  -0.00085
 Alpha virt. eigenvalues --    0.00660   0.01976   0.02955   0.04095   0.05446
 Alpha virt. eigenvalues --    0.06451   0.06827   0.07164   0.08268   0.08473

 Mulliken atomic charges:
              1
     1  C    0.996863
     2  C    0.613611
     3  C    0.056510
     4  C    0.613611
     5  C    0.996864
     6  C    0.944311
     7  H   -0.800012
     8  H   -0.692874
     9  H   -0.692874
    10  H   -0.800012
    11  N    0.676123
    12  O   -0.676447
    13  O   -0.676447
    14  F   -0.559225
 Sum of Mulliken atomic charges =   0.00000

 Dipole moment (field-independent basis, Debye):
    X=             -3.2582    Y=              0.0000    Z=              0.0000  Tot=              3.2582
 Quadrupole moment (field-independent basis, Debye-Ang):
   XX=            -72.1040   YY=            -50.7224   ZZ=            -56.6937
   XY=              0.0000   XZ=              0.0000   YZ=              0.0000

  Exact polarizability: 122.805   0.000  97.366   0.000   0.000  49.032
 Approx polarizability: 192.362   0.000 186.184   0.000   0.000  76.172

                     1                      2                      3
                     A                      A                      A
 Frequencies --    60.4638               115.6124               226.1765
 Red. masses --     8.0314                10.6996                 9.7237
 Frc consts  --     0.0173                 0.0843                 0.2931
 IR Inten    --     0.0000                 4.4818                 3.4149

                     4                      5                      6
                     A                      A                      A
 Frequencies --   310.4253               355.3239               405.3403
 Red. masses --     7.4682                13.4115                 6.9706
 Frc consts  --     0.4240                 0.9976                 0.6748
 IR Inten    --     0.0151                 0.1442                 3.0826

                     7                      8                      9
                     A                      A                      A
 Frequencies --   428.4085               500.4923               532.4529
 Red. masses --     2.9933                 2.8211                 6.8705
 Frc consts  --     0.3237                 0.4163                 1.1476
 IR Inten    --     0.0000                 9.3213                 0.7551

                    10                     11                     12
                     A                      A                      A
 Frequencies --   621.8195               636.5953               697.4427
 Red. masses --     8.0944                 7.2312                 3.5116
 Frc consts  --     1.8440                 1.7266                 1.0064
 IR Inten    --    28.9099                 0.4057                11.8595

                    13                     14                     15
                     A                      A                      A
 Frequencies --   772.5026               812.0062               823.1603
 Red. masses --     4.9935                 7.4530                 1.2415
 Frc consts  --     1.7557                 2.8953                 0.4956
 IR Inten    --    22.9465                 0.2783                 0.0000

                    16                     17                     18
                     A                      A                      A
 Frequencies --   872.7208               873.9348               978.8087
 Red. masses --     1.8344                 9.1502                 1.3939
 Frc consts  --     0.8232                 4.1176                 0.7868
 IR Inten    --    48.3755                51.3251                 0.1413

                    19                     20                     21
                     A                      A                      A
 Frequencies --   985.5126              1018.8602              1107.5054
 Red. masses --     1.3509                 2.5218                 1.2056
 Frc consts  --     0.7730                 1.5424                 0.8713
 IR Inten    --     0.0000                 4.8602                 9.7041

                    22                     23                     24
                     A                      A                      A
 Frequencies --  1120.7458              1163.2000              1246.3299
 Red. masses --     2.7949                 1.2918                 4.5464
 Frc consts  --     2.0684                 1.0298                 4.1609
 IR Inten    --    45.9045                23.5571               134.2251

                    25                     26                     27
                     A                      A                      A
 Frequencies --  1290.2739              1373.6794              1381.5008
 Red. masses --     1.2821                10.4815                14.1808
 Frc consts  --     1.2576                11.6532                15.9460
 IR Inten    --     2.3964                14.7936               322.4131

                    28                     29                     30
                     A                      A                      A
 Frequencies --  1438.3390              1511.0536              1591.9931
 Red. masses --     3.7987                 2.6871                12.9730
 Frc consts  --     4.6303                 3.6149                19.3720
 IR Inten    --     0.6363                86.5043               195.8752

                    31                     32                     33
                     A                      A                      A
 Frequencies --  1634.9381              1658.7292              3213.0713
 Red. masses --     6.4016                 8.7013                 1.0912
 Frc consts  --    10.0819                14.1053                 6.6373
 IR Inten    --    89.3690                66.1443                 0.3820

                    34                     35                     36
                     A                      A                      A
 Frequencies --  3214.1651              3235.6690              3235.9352
 Red. masses --     1.0915                 1.0938                 1.0947
 Frc consts  --     6.6435                 6.7474                 6.7539
 IR Inten    --     0.0341                 3.0677                 5.1877

 - Thermochemistry -
 -------------------
 Temperature   298.150 Kelvin.  Pressure   1.00000 Atm.
 Atom     1 has atomic number  6 and mass  12.00000

 Molecular mass:   141.02261 amu.
 Principal axes and moments of inertia in atomic units:
                           1         2         3
     Eigenvalues --   458.293762265.005202723.29896
           X            1.00000   0.00000   0.00000
           Y            0.00000   1.00000   0.00000
           Z            0.00000   0.00000   1.00000
 This molecule is an asymmetric top.
 Rotational symmetry number  1.
 Warning -- assumption of classical behavior for rotation
           may cause significant error
 Rotational temperatures (Kelvin)      0.18899     0.03824     0.03180
 Rotational constants (GHZ):           3.93796     0.79679     0.66270
 Zero-point vibrational energy     247897.3 (Joules/Mol)
                                   59.24887 (Kcal/Mol)
 Warning -- explicit consideration of   9 degrees of freedom as
           vibrations may cause significant error
 Vibrational temperatures:     86.99   166.34   325.42   446.63   511.23
          (Kelvin)            583.19   616.38   720.10   766.08   894.66
                              915.92  1003.46  1111.46  1168.29  1184.34
                             1255.65  1257.40  1408.29  1417.93  1465.91
                             1593.45  1612.50  1673.58  1793.19  1856.41
                             1976.42  1987.67  2069.45  2174.07  2290.52
                             2352.31  2386.54  4622.89  4624.46  4655.40
                             4655.78

 Zero-point correction=                           0.094419 (Hartree/Particle)
 Thermal correction to Energy=                    0.102063
 Thermal correction to Enthalpy=                  0.103007
 Thermal correction to Gibbs Free Energy=         0.061250
 Sum of electronic and zero-point Energies=           -535.969118
 Sum of electronic and thermal Energies=              -535.961474
 Sum of electronic and thermal Enthalpies=            -535.960530
 Sum of electronic and thermal Free Energies=         -536.002287

                     E (Thermal)             CV                S
                      KCal/Mol        Cal/Mol-Kelvin    Cal/Mol-Kelvin
 Total                   64.045             28.760             87.885
 Electronic               0.000              0.000              0.000
 Translational            0.889              2.981             40.743
 Rotational               0.889              2.981             29.426
 Vibrational             62.268             22.799             17.717
 Vibration     1          0.597              1.973              4.442
 Vibration     2          0.608              1.936              3.172
 Vibration     3          0.650              1.801              1.909
 Vibration     4          0.699              1.654              1.360
 Vibration     5          0.731              1.564              1.142
 Vibration     6          0.770              1.459              0.943
 Vibration     7          0.790              1.408              0.864
 Vibration     8          0.856              1.249              0.657
 Vibration     9          0.887              1.178              0.582

 Optimization completed.
    -- Stationary point found.
 Normal termination of Gaussian 09 at Fri Apr 21 12:54:23 2017.
