 Gaussian 09, Revision B.01,
 Gaussian 09:  EM64L-G09RevB.01 12-Aug-2010

 ----------------------------------------------------------------------
 #p Temperature=348.15 int=(grid=ultrafine) CPHF=(grid=fine) freq rb3ly
 p/aug-cc-pvdz
 ----------------------------------------------------------------------

 ------------------------------------
 p-NO2-Ph-N2-OTf-RB3LYP-aug-cc-pVDZ--
 ------------------------------------
 Symbolic Z-matrix:
 Charge =  0 Multiplicity = 1

                         Standard orientation:
 ---------------------------------------------------------------------
 Center     Atomic      Atomic             Coordinates (Angstroms)
 Number     Number       Type             X           Y           Z
 ---------------------------------------------------------------------
      1          6           0        2.198379   -0.683749   -0.448090
      2          6           0        1.088199    0.160341   -0.428140
      3          6           0        1.301279    1.475871    0.008080
      4          6           0        2.544258    1.990811    0.410570
      5          6           0        3.633119    1.128211    0.391060
      6          6           0        3.435679   -0.187899   -0.038190
      7          1           0        2.106619   -1.716659   -0.774660
      8          1           0        0.086209   -0.142670   -0.750210
      9          1           0        2.644618    3.025001    0.733330
     10          1           0        4.623109    1.455821    0.696660
     11          7           0        4.612319   -1.101529   -0.061100
     12          8           0        5.685229   -0.638778    0.308010
     13          8           0        4.423579   -2.246939   -0.447010
     14          7           0        0.199948    2.335480    0.039960
     15          7           0       -0.793882    2.842020    0.107510
     16         16           0       -2.768031    0.422100   -0.324740
     17          6           0       -2.856081   -1.343840    0.367790
     18          8           0       -2.230541    1.199270    0.873790
     19          8           0       -4.151751    0.745599   -0.741280
     20          8           0       -1.731821    0.315730   -1.420350
     21          9           0       -1.620031   -1.754240    0.748010
     22          9           0       -3.664901   -1.402910    1.433910
     23          9           0       -3.306991   -2.192230   -0.568320
 ---------------------------------------------------------------------

 SCF Done:  E(RB3LYP) =  -1507.15367256     A.U. after   19 cycles

 The electronic state is 1-A.
 Alpha  occ. eigenvalues --  -89.11608 -24.75230 -24.74886 -24.74886 -19.23899
 Alpha  occ. eigenvalues --  -19.23865 -19.14078 -19.13400 -19.12837 -14.62679
 Alpha  occ. eigenvalues --  -14.57765 -14.56531 -10.44526 -10.36221 -10.33035
 Alpha  occ. eigenvalues --  -10.30680 -10.29272 -10.29116 -10.28794  -8.14229
 Alpha  occ. eigenvalues --   -6.10577  -6.10545  -6.10518  -1.32479  -1.29025
 Alpha  occ. eigenvalues --   -1.24151  -1.23989  -1.23943  -1.11897  -1.11009
 Alpha  occ. eigenvalues --   -0.99382  -0.98340  -0.97721  -0.92976  -0.85713
 Alpha  occ. eigenvalues --   -0.83458  -0.73390  -0.72529  -0.72143  -0.65619
 Alpha  occ. eigenvalues --   -0.64458  -0.62059  -0.60331  -0.60268  -0.60126
 Alpha  occ. eigenvalues --   -0.59602  -0.59291  -0.57016  -0.56669  -0.55247
 Alpha  occ. eigenvalues --   -0.54046  -0.53484  -0.52077  -0.50272  -0.47987
 Alpha  occ. eigenvalues --   -0.47852  -0.46981  -0.46157  -0.45588  -0.45034
 Alpha  occ. eigenvalues --   -0.44683  -0.43929  -0.43737  -0.41997  -0.37271
 Alpha  occ. eigenvalues --   -0.37016  -0.36912  -0.35401  -0.35376  -0.33929
 Alpha  occ. eigenvalues --   -0.33216  -0.30738  -0.30573  -0.29463  -0.26787
 Alpha virt. eigenvalues --   -0.18477  -0.14502  -0.12725  -0.10791  -0.05519
 Alpha virt. eigenvalues --   -0.04636  -0.01879  -0.01252  -0.00066   0.00845
 Alpha virt. eigenvalues --    0.01861   0.02106   0.03399   0.03774   0.04546

 Mulliken atomic charges:
              1
     1  C    0.692013
     2  C    1.437464
     3  C    0.021564
     4  C    0.977455
     5  C    1.101375
     6  C    0.656151
     7  H   -0.865042
     8  H   -0.870400
     9  H   -0.824830
    10  H   -0.835055
    11  N    0.712763
    12  O   -0.662949
    13  O   -0.632713
    14  N    0.404362
    15  N   -0.588957
    16  S    2.322919
    17  C    1.076046
    18  O   -0.930727
    19  O   -0.887657
    20  O   -0.960703
    21  F   -0.501542
    22  F   -0.419323
    23  F   -0.422212
 Sum of Mulliken atomic charges =   0.00000

 Dipole moment (field-independent basis, Debye):
    X=              9.8342    Y=              4.7695    Z=              1.3220  Tot=             11.0094
 Quadrupole moment (field-independent basis, Debye-Ang):
   XX=           -147.3742   YY=           -102.1170   ZZ=           -117.2907
   XY=             19.9170   XZ=             -1.9667   YZ=              2.0913

  Exact polarizability: 244.832 -10.724 163.665   7.099  10.509 101.399
 Approx polarizability: 358.807 -16.082 289.859  13.709  30.380 173.614

                     1                      2                      3
                     A                      A                      A
 Frequencies --    16.3728                20.5292                30.5682
 Red. masses --    12.1232                15.5078                10.4618
 Frc consts  --     0.0019                 0.0039                 0.0058
 IR Inten    --     0.0520                 2.5383                 0.3588

                     4                      5                      6
                     A                      A                      A
 Frequencies --    42.7106                48.6867                57.6904
 Red. masses --    13.4286                13.9605                 5.5068
 Frc consts  --     0.0144                 0.0195                 0.0108
 IR Inten    --     5.7667                 2.7201                 0.3094

                     7                      8                      9
                     A                      A                      A
 Frequencies --    88.9643               109.5462               123.9886
 Red. masses --    10.1507                15.2416                11.8884
 Frc consts  --     0.0473                 0.1078                 0.1077
 IR Inten    --     5.1538                 1.9700                34.5089

                    10                     11                     12
                     A                      A                      A
 Frequencies --   170.1201               184.4469               208.8721
 Red. masses --    12.9161                17.0704                15.7817
 Frc consts  --     0.2202                 0.3422                 0.4057
 IR Inten    --    25.0796                 0.8900                40.8576

                    13                     14                     15
                     A                      A                      A
 Frequencies --   232.0153               261.0229               279.6610
 Red. masses --     8.3630                 7.4760                17.6499
 Frc consts  --     0.2652                 0.3001                 0.8133
 IR Inten    --    14.0537                26.4193                 8.4943

                    16                     17                     18
                     A                      A                      A
 Frequencies --   313.9280               328.8567               332.8207
 Red. masses --    17.2459                16.4110                13.9168
 Frc consts  --     1.0014                 1.0457                 0.9083
 IR Inten    --     0.9189                13.4337                22.0282

                    19                     20                     21
                     A                      A                      A
 Frequencies --   413.7619               423.8643               465.8699
 Red. masses --     2.9726                 6.3049                15.2431
 Frc consts  --     0.2998                 0.6674                 1.9492
 IR Inten    --     0.3595                12.9096                29.9899

                    22                     23                     24
                     A                      A                      A
 Frequencies --   478.0573               487.4029               529.8991
 Red. masses --    14.4508                11.4982                 5.3832
 Frc consts  --     1.9458                 1.6094                 0.8906
 IR Inten    --    56.2272                 3.1129                 5.3023

                    25                     26                     27
                     A                      A                      A
 Frequencies --   538.1427               540.4164               549.6310
 Red. masses --    17.8750                16.7133                 5.8582
 Frc consts  --     3.0499                 2.8759                 1.0427
 IR Inten    --     1.9138                 8.6338                 4.1660

                    28                     29                     30
                     A                      A                      A
 Frequencies --   572.1053               586.8151               639.8592
 Red. masses --     7.9508                21.0296                 7.2583
 Frc consts  --     1.5333                 4.2666                 1.7509
 IR Inten    --     1.0754               133.5487                 0.7569

                    31                     32                     33
                     A                      A                      A
 Frequencies --   683.5035               730.0552               767.5119
 Red. masses --     4.3316                18.0032                 3.6576
 Frc consts  --     1.1923                 5.6534                 1.2695
 IR Inten    --    10.6388                 1.7955                24.3614

                    34                     35                     36
                     A                      A                      A
 Frequencies --   775.5814               844.9044               864.7730
 Red. masses --     7.3100                 1.3669                10.0632
 Frc consts  --     2.5907                 0.5749                 4.4339
 IR Inten    --    22.0988                 8.4960                39.7901

                    37                     38                     39
                     A                      A                      A
 Frequencies --   910.6997               921.1413               997.0807
 Red. masses --     1.6595                10.3472                 1.3852
 Frc consts  --     0.8109                 5.1728                 0.8114
 IR Inten    --    14.8982               260.7323                 0.4419

                    40                     41                     42
                     A                      A                      A
 Frequencies --  1021.5962              1037.1275              1070.4262
 Red. masses --     2.8613                 1.4811                 6.1501
 Frc consts  --     1.7594                 0.9387                 4.1519
 IR Inten    --     7.8049                14.4907               127.9597

                    43                     44                     45
                     A                      A                      A
 Frequencies --  1107.3133              1119.7642              1120.6958
 Red. masses --     3.0625                 1.9204                 5.6716
 Frc consts  --     2.2124                 1.4187                 4.1970
 IR Inten    --    61.5107                31.2949                65.5856

                    46                     47                     48
                     A                      A                      A
 Frequencies --  1134.9278              1159.9027              1177.5265
 Red. masses --     2.4963                13.6699                13.2098
 Frc consts  --     1.8945                10.8358                10.7916
 IR Inten    --    63.6788               131.0789               272.5585

                    49                     50                     51
                     A                      A                      A
 Frequencies --  1195.1574              1223.2567              1313.9284
 Red. masses --     1.3898                13.6572                 1.3215
 Frc consts  --     1.1697                12.0405                 1.3442
 IR Inten    --    42.2312               533.2624                11.0328

                    52                     53                     54
                     A                      A                      A
 Frequencies --  1371.6374              1383.8898              1441.3873
 Red. masses --     8.3635                14.4961                 3.2629
 Frc consts  --     9.2708                16.3570                 3.9940
 IR Inten    --    49.5101               226.0855                 1.4030

                    55                     56                     57
                     A                      A                      A
 Frequencies --  1488.3927              1601.6444              1620.4939
 Red. masses --     2.1101                10.0025                 5.8360
 Frc consts  --     2.7541                15.1179                 9.0295
 IR Inten    --    17.7296               121.3635                18.3472

                    58                     59                     60
                     A                      A                      A
 Frequencies --  1649.7853              2301.5486              3109.1545
 Red. masses --    10.2363                13.9649                 1.1009
 Frc consts  --    16.4152                43.5841                 6.2704
 IR Inten    --   118.0924               203.5135               274.6604

                    61                     62                     63
                     A                      A                      A
 Frequencies --  3217.8949              3235.9164              3240.9490
 Red. masses --     1.0928                 1.0931                 1.0950
 Frc consts  --     6.6672                 6.7439                 6.7767
 IR Inten    --     1.6931                13.4045                12.5525

 - Thermochemistry -
 -------------------
 Temperature   348.150 Kelvin.  Pressure   1.00000 Atm.
 Atom     1 has atomic number  6 and mass  12.00000

 Molecular mass:   298.98238 amu.
 Principal axes and moments of inertia in atomic units:
                           1         2         3
     Eigenvalues --  2788.71139********************
           X            0.99999  -0.00175   0.00286
           Y            0.00171   0.99992   0.01275
           Z           -0.00288  -0.01274   0.99991
 This molecule is an asymmetric top.
 Rotational symmetry number  1.
 Warning -- assumption of classical behavior for rotation
           may cause significant error
 Rotational temperatures (Kelvin)      0.03106     0.00801     0.00683
 Rotational constants (GHZ):           0.64716     0.16690     0.14237
 Zero-point vibrational energy     334453.1 (Joules/Mol)
                                   79.93621 (Kcal/Mol)
 Warning -- explicit consideration of  31 degrees of freedom as
           vibrations may cause significant error
 Vibrational temperatures:     23.56    29.54    43.98    61.45    70.05
          (Kelvin)             83.00   128.00   157.61   178.39   244.76
                              265.38   300.52   333.82   375.55   402.37
                              451.67   473.15   478.85   595.31   609.85
                              670.28   687.82   701.26   762.41   774.27
                              777.54   790.80   823.13   844.29   920.61
                              983.41  1050.39  1104.28  1115.89  1215.63
                             1244.21  1310.29  1325.32  1434.58  1469.85
                             1492.19  1540.10  1593.17  1611.09  1612.43
                             1632.91  1668.84  1694.20  1719.56  1759.99
                             1890.45  1973.48  1991.11  2073.83  2141.46
                             2304.41  2331.53  2373.67  3311.41  4473.37
                             4629.83  4655.76  4663.00

 Zero-point correction=                           0.127386 (Hartree/Particle)
 Thermal correction to Energy=                    0.150745
 Thermal correction to Enthalpy=                  0.151848
 Thermal correction to Gibbs Free Energy=         0.064424
 Sum of electronic and zero-point Energies=          -1507.026286
 Sum of electronic and thermal Energies=             -1507.002928
 Sum of electronic and thermal Enthalpies=           -1507.001825
 Sum of electronic and thermal Free Energies=        -1507.089248

                     E (Thermal)             CV                S
                      KCal/Mol        Cal/Mol-Kelvin    Cal/Mol-Kelvin
 Total                   94.594             69.778            157.573
 Electronic               0.000              0.000              0.000
 Translational            1.038              2.981             43.753
 Rotational               1.038              2.981             34.764
 Vibrational             92.518             63.816             79.056
 Vibration     1          0.692              1.986              7.340
 Vibration     2          0.692              1.986              6.890
 Vibration     3          0.693              1.985              6.100
 Vibration     4          0.694              1.982              5.436
 Vibration     5          0.694              1.981              5.177
 Vibration     6          0.695              1.978              4.841
 Vibration     7          0.700              1.965              3.987
 Vibration     8          0.704              1.954              3.579
 Vibration     9          0.707              1.944              3.338
 Vibration    10          0.720              1.907              2.728
 Vibration    11          0.725              1.894              2.574
 Vibration    12          0.734              1.868              2.340
 Vibration    13          0.744              1.842              2.145
 Vibration    14          0.758              1.805              1.930
 Vibration    15          0.767              1.780              1.807
 Vibration    16          0.786              1.730              1.604
 Vibration    17          0.795              1.708              1.524
 Vibration    18          0.798              1.701              1.503
 Vibration    19          0.853              1.566              1.147
 Vibration    20          0.860              1.548              1.109
 Vibration    21          0.893              1.472              0.966
 Vibration    22          0.903              1.450              0.929
 Vibration    23          0.911              1.432              0.901
 Vibration    24          0.948              1.352              0.784
 Vibration    25          0.956              1.337              0.764
 Vibration    26          0.958              1.333              0.758
 Vibration    27          0.967              1.315              0.736
 Vibration    28          0.988              1.272              0.684
 Vibration    29          1.002              1.244              0.652
 Vibration    30          1.055              1.144              0.548
 Vibration    31          1.100              1.063              0.476

 Optimization completed.
    -- Stationary point found.
 Normal termination of Gaussian 09 at Fri May  5 14:59:04 2017.
