 Gaussian 09, Revision B.01,
 Gaussian 09:  EM64L-G09RevB.01 12-Aug-2010

 ----------------------------------------------------------------------
 #p Temperature=348.15 int=(grid=ultrafine) CPHF=(grid=fine) freq rb3ly
 p/aug-cc-pvdz
 ----------------------------------------------------------------------

 -------------------------------
 p-NO2-Ph-F-RB3LYP-aug-cc-pVDZ--
 -------------------------------
 Symbolic Z-matrix:
 Charge =  0 Multiplicity = 1

                         Standard orientation:
 ---------------------------------------------------------------------
 Center     Atomic      Atomic             Coordinates (Angstroms)
 Number     Number       Type             X           Y           Z
 ---------------------------------------------------------------------
      1          6           0        0.000000    1.222450    0.000710
      2          6           0        0.000000    1.224040    1.394580
      3          6           0        0.000000    0.000000    2.060480
      4          6           0        0.000000   -1.224040    1.394580
      5          6           0        0.000000   -1.222450    0.000710
      6          6           0        0.000000    0.000000   -0.675540
      7          1           0        0.000000    2.150440   -0.565300
      8          1           0        0.000000    2.152310    1.963100
      9          1           0        0.000000   -2.152310    1.963100
     10          1           0        0.000000   -2.150440   -0.565300
     11          7           0        0.000000    0.000000   -2.148570
     12          8           0        0.000000    1.087790   -2.720540
     13          8           0        0.000000   -1.087790   -2.720540
     14          9           0        0.000000    0.000000    3.413320
 ---------------------------------------------------------------------

 SCF Done:  E(RB3LYP) =  -536.063537219     A.U. after   13 cycles

 The electronic state is 1-A1.
 Alpha  occ. eigenvalues --  -24.75225 -19.19494 -19.19494 -14.58356 -10.31572
 Alpha  occ. eigenvalues --  -10.26967 -10.24200 -10.24197 -10.23596 -10.23595
 Alpha  occ. eigenvalues --   -1.26223  -1.24520  -1.07231  -0.91530  -0.82812
 Alpha  occ. eigenvalues --   -0.80207  -0.72078  -0.66835  -0.62468  -0.58761
 Alpha  occ. eigenvalues --   -0.56697  -0.55005  -0.54363  -0.51639  -0.50126
 Alpha  occ. eigenvalues --   -0.49033  -0.47322  -0.45294  -0.43842  -0.40348
 Alpha  occ. eigenvalues --   -0.38876  -0.33090  -0.32860  -0.31060  -0.30329
 Alpha  occ. eigenvalues --   -0.29296
 Alpha virt. eigenvalues --   -0.11000  -0.05865  -0.02247  -0.01537  -0.00085
 Alpha virt. eigenvalues --    0.00660   0.01976   0.02955   0.04095   0.05446
 Alpha virt. eigenvalues --    0.06451   0.06827   0.07164   0.08268   0.08473

 Mulliken atomic charges:
              1
     1  C    0.996901
     2  C    0.613590
     3  C    0.056522
     4  C    0.613590
     5  C    0.996901
     6  C    0.944271
     7  H   -0.800026
     8  H   -0.692867
     9  H   -0.692867
    10  H   -0.800026
    11  N    0.676124
    12  O   -0.676448
    13  O   -0.676448
    14  F   -0.559219
 Sum of Mulliken atomic charges =   0.00000

 Dipole moment (field-independent basis, Debye):
    X=              0.0000    Y=              0.0000    Z=              3.2582  Tot=              3.2582
 Quadrupole moment (field-independent basis, Debye-Ang):
   XX=            -56.6937   YY=            -50.7224   ZZ=            -72.1040
   XY=              0.0000   XZ=              0.0000   YZ=              0.0000

  Exact polarizability:  49.032   0.000  97.366   0.000   0.000 122.805
 Approx polarizability:  76.172   0.000 186.184   0.000   0.000 192.362

                     1                      2                      3
                    A2                     B1                     B2
 Frequencies --    60.4705               115.6109               226.1765
 Red. masses --     8.0314                10.6995                 9.7236
 Frc consts  --     0.0173                 0.0843                 0.2931
 IR Inten    --     0.0000                 4.4820                 3.4150

                     4                      5                      6
                    B1                     A1                     B2
 Frequencies --   310.4234               355.3238               405.3400
 Red. masses --     7.4684                13.4113                 6.9707
 Frc consts  --     0.4240                 0.9976                 0.6748
 IR Inten    --     0.0151                 0.1442                 3.0824

                     7                      8                      9
                    A2                     B1                     B2
 Frequencies --   428.4041               500.4900               532.4524
 Red. masses --     2.9933                 2.8210                 6.8705
 Frc consts  --     0.3237                 0.4163                 1.1476
 IR Inten    --     0.0000                 9.3212                 0.7552

                    10                     11                     12
                    A1                     B2                     B1
 Frequencies --   621.8202               636.5958               697.4475
 Red. masses --     8.0946                 7.2312                 3.5121
 Frc consts  --     1.8441                 1.7266                 1.0066
 IR Inten    --    28.9090                 0.4057                11.8572

                    13                     14                     15
                    B1                     A1                     A2
 Frequencies --   772.4973               812.0065               823.1658
 Red. masses --     4.9925                 7.4527                 1.2415
 Frc consts  --     1.7554                 2.8952                 0.4957
 IR Inten    --    22.9502                 0.2783                 0.0000

                    16                     17                     18
                    B1                     A1                     B1
 Frequencies --   872.7305               873.9341               978.7940
 Red. masses --     1.8344                 9.1502                 1.3939
 Frc consts  --     0.8232                 4.1176                 0.7868
 IR Inten    --    48.3753                51.3246                 0.1395

                    19                     20                     21
                    A2                     A1                     B2
 Frequencies --   985.5012              1018.8594              1107.5063
 Red. masses --     1.3509                 2.5218                 1.2056
 Frc consts  --     0.7730                 1.5424                 0.8713
 IR Inten    --     0.0000                 4.8628                 9.7052

                    22                     23                     24
                    A1                     A1                     A1
 Frequencies --  1120.7356              1163.2088              1246.3359
 Red. masses --     2.7946                 1.2918                 4.5468
 Frc consts  --     2.0681                 1.0298                 4.1612
 IR Inten    --    45.9053                23.5420               134.2417

                    25                     26                     27
                    B2                     B2                     A1
 Frequencies --  1290.2709              1373.6829              1381.4966
 Red. masses --     1.2821                10.4813                14.1808
 Frc consts  --     1.2576                11.6531                15.9459
 IR Inten    --     2.3959                14.7931               322.4068

                    28                     29                     30
                    B2                     A1                     B2
 Frequencies --  1438.3436              1511.0523              1591.9896
 Red. masses --     3.7988                 2.6872                12.9732
 Frc consts  --     4.6304                 3.6150                19.3722
 IR Inten    --     0.6361                86.4922               195.8783

                    31                     32                     33
                    A1                     B2                     A1
 Frequencies --  1634.9448              1658.7264              3213.0132
 Red. masses --     6.4017                 8.7012                 1.0912
 Frc consts  --    10.0821                14.1052                 6.6372
 IR Inten    --    89.3828                66.1408                 0.3877

                    34                     35                     36
                    B2                     B2                     A1
 Frequencies --  3214.1035              3235.7516              3236.0142
 Red. masses --     1.0915                 1.0938                 1.0947
 Frc consts  --     6.6433                 6.7477                 6.7541
 IR Inten    --     0.0331                 3.0693                 5.1827

 - Thermochemistry -
 -------------------
 Temperature   348.150 Kelvin.  Pressure   1.00000 Atm.
 Atom     1 has atomic number  6 and mass  12.00000

 Molecular mass:   141.02261 amu.
 Principal axes and moments of inertia in atomic units:
                           1         2         3
     Eigenvalues --   458.294302265.001382723.29568
           X            0.00000   0.00000   1.00000
           Y            0.00000   1.00000   0.00000
           Z            1.00000   0.00000   0.00000
 This molecule is an asymmetric top.
 Rotational symmetry number  2.
 Warning -- assumption of classical behavior for rotation
           may cause significant error
 Rotational temperatures (Kelvin)      0.18899     0.03824     0.03180
 Rotational constants (GHZ):           3.93795     0.79679     0.66270
 Zero-point vibrational energy     247897.5 (Joules/Mol)
                                   59.24892 (Kcal/Mol)
 Warning -- explicit consideration of  12 degrees of freedom as
           vibrations may cause significant error
 Vibrational temperatures:     87.00   166.34   325.42   446.63   511.23
          (Kelvin)            583.19   616.38   720.09   766.08   894.66
                              915.92  1003.47  1111.45  1168.29  1184.35
                             1255.66  1257.39  1408.26  1417.91  1465.91
                             1593.45  1612.49  1673.60  1793.20  1856.41
                             1976.42  1987.66  2069.45  2174.06  2290.52
                             2352.32  2386.53  4622.80  4624.37  4655.52
                             4655.90

 Zero-point correction=                           0.094419 (Hartree/Particle)
 Thermal correction to Energy=                    0.104528
 Thermal correction to Enthalpy=                  0.105630
 Thermal correction to Gibbs Free Energy=         0.054808
 Sum of electronic and zero-point Energies=           -535.969118
 Sum of electronic and thermal Energies=              -535.959010
 Sum of electronic and thermal Enthalpies=            -535.957907
 Sum of electronic and thermal Free Energies=         -536.008730

                     E (Thermal)             CV                S
                      KCal/Mol        Cal/Mol-Kelvin    Cal/Mol-Kelvin
 Total                   65.592             33.060             91.603
 Electronic               0.000              0.000              0.000
 Translational            1.038              2.981             41.513
 Rotational               1.038              2.981             28.511
 Vibrational             63.517             27.099             21.579
 Vibration     1          0.695              1.977              4.748
 Vibration     2          0.705              1.950              3.474
 Vibration     3          0.741              1.849              2.192
 Vibration     4          0.784              1.736              1.623
 Vibration     5          0.812              1.666              1.393
 Vibration     6          0.847              1.581              1.179
 Vibration     7          0.864              1.540              1.093
 Vibration     8          0.923              1.408              0.863
 Vibration     9          0.951              1.348              0.778
 Vibration    10          1.036              1.178              0.582
 Vibration    11          1.051              1.150              0.554
 Vibration    12          1.115              1.038              0.454

 Optimization completed.
    -- Stationary point found.
 Normal termination of Gaussian 09 at Fri May  5 12:11:44 2017.
