 Gaussian 09, Revision B.01,
 Gaussian 09:  EM64L-G09RevB.01 12-Aug-2010

 ----------------------------------------------------------------------
 #p opt=(verytight,maxcycles=1000) int=(grid=ultrafine) CPHF=(grid=fine
 ) freq rb3lyp/aug-cc-pvdz
 ----------------------------------------------------------------------

 ----------------------------------
 p-NO2-Ph-N2-OTf-RB3LYP-aug-cc-pVDZ
 ----------------------------------
 Symbolic Z-matrix:
 Charge =  0 Multiplicity = 1

 SCF Done:  E(RB3LYP) =  -1507.10489852     A.U. after   33 cycles
 SCF Done:  E(RB3LYP) =  -1507.11189872     A.U. after   26 cycles
 SCF Done:  E(RB3LYP) =  -1507.10716331     A.U. after   25 cycles
 SCF Done:  E(RB3LYP) =  -1507.11279224     A.U. after   26 cycles
 SCF Done:  E(RB3LYP) =  -1507.11480510     A.U. after   37 cycles
 SCF Done:  E(RB3LYP) =  -1507.11675338     A.U. after   26 cycles
 SCF Done:  E(RB3LYP) =  -1507.11585645     A.U. after   26 cycles
 SCF Done:  E(RB3LYP) =  -1507.11751973     A.U. after   28 cycles
 SCF Done:  E(RB3LYP) =  -1507.11898948     A.U. after   16 cycles
 SCF Done:  E(RB3LYP) =  -1507.12240826     A.U. after   37 cycles
 SCF Done:  E(RB3LYP) =  -1507.15367253     A.U. after   10 cycles
 SCF Done:  E(RB3LYP) =  -1507.15367255     A.U. after    9 cycles
 SCF Done:  E(RB3LYP) =  -1507.15367255     A.U. after    7 cycles
 SCF Done:  E(RB3LYP) =  -1507.15367255     A.U. after    6 cycles
 SCF Done:  E(RB3LYP) =  -1507.15367255     A.U. after    6 cycles
 SCF Done:  E(RB3LYP) =  -1507.15367255     A.U. after    5 cycles
 SCF Done:  E(RB3LYP) =  -1507.15367255     A.U. after    4 cycles
 SCF Done:  E(RB3LYP) =  -1507.15367255     A.U. after    4 cycles
 SCF Done:  E(RB3LYP) =  -1507.15367255     A.U. after    4 cycles
 Optimization completed.
    -- Stationary point found.
 Normal termination of Gaussian 09 at Thu Feb 23 09:48:02 2017.

 ----------------------------------------------------------------------
 #P Geom=AllCheck Guess=TCheck SCRF=Check GenChk RB3LYP/Aug-CC-pVDZ Fre
 q
 ----------------------------------------------------------------------

 p-NO2-Ph-N2-OTf-RB3LYP-aug-cc-pVDZ
 ----------------------------------
 Redundant internal coordinates taken from checkpoint file:
 /home/ubuntu/g09/Gau-8222.chk
 Charge =  0 Multiplicity = 1

                         Standard orientation:
 ---------------------------------------------------------------------
 Center     Atomic      Atomic             Coordinates (Angstroms)
 Number     Number       Type             X           Y           Z
 ---------------------------------------------------------------------
      1          6           0        2.198380   -0.683748   -0.448091
      2          6           0        1.088201    0.160345   -0.428137
      3          6           0        1.301282    1.475872    0.008082
      4          6           0        2.544256    1.990813    0.410570
      5          6           0        3.633115    1.128210    0.391056
      6          6           0        3.435683   -0.187904   -0.038189
      7          1           0        2.106619   -1.716661   -0.774657
      8          1           0        0.086210   -0.142668   -0.750210
      9          1           0        2.644624    3.024998    0.733329
     10          1           0        4.623112    1.455823    0.696662
     11          7           0        4.612318   -1.101530   -0.061104
     12          8           0        5.685233   -0.638778    0.308009
     13          8           0        4.423577   -2.246939   -0.447012
     14          7           0        0.199946    2.335479    0.039959
     15          7           0       -0.793876    2.842023    0.107512
     16         16           0       -2.768035    0.422096   -0.324740
     17          6           0       -2.856084   -1.343842    0.367791
     18          8           0       -2.230543    1.199270    0.873786
     19          8           0       -4.151753    0.745600   -0.741283
     20          8           0       -1.731819    0.315734   -1.420350
     21          9           0       -1.620033   -1.754237    0.748009
     22          9           0       -3.664895   -1.402914    1.433911
     23          9           0       -3.306991   -2.192226   -0.568315
 ---------------------------------------------------------------------

 SCF Done:  E(RB3LYP) =  -1507.15367255     A.U. after    2 cycles

 The electronic state is 1-A.
 Alpha  occ. eigenvalues --  -89.11608 -24.75230 -24.74886 -24.74886 -19.23899
 Alpha  occ. eigenvalues --  -19.23865 -19.14078 -19.13400 -19.12837 -14.62679
 Alpha  occ. eigenvalues --  -14.57765 -14.56531 -10.44526 -10.36221 -10.33035
 Alpha  occ. eigenvalues --  -10.30680 -10.29272 -10.29116 -10.28794  -8.14229
 Alpha  occ. eigenvalues --   -6.10577  -6.10545  -6.10518  -1.32479  -1.29024
 Alpha  occ. eigenvalues --   -1.24151  -1.23989  -1.23943  -1.11897  -1.11009
 Alpha  occ. eigenvalues --   -0.99382  -0.98340  -0.97721  -0.92976  -0.85713
 Alpha  occ. eigenvalues --   -0.83458  -0.73390  -0.72529  -0.72143  -0.65619
 Alpha  occ. eigenvalues --   -0.64458  -0.62059  -0.60332  -0.60268  -0.60127
 Alpha  occ. eigenvalues --   -0.59602  -0.59291  -0.57016  -0.56669  -0.55247
 Alpha  occ. eigenvalues --   -0.54046  -0.53484  -0.52077  -0.50272  -0.47987
 Alpha  occ. eigenvalues --   -0.47852  -0.46981  -0.46157  -0.45588  -0.45034
 Alpha  occ. eigenvalues --   -0.44683  -0.43929  -0.43737  -0.41997  -0.37271
 Alpha  occ. eigenvalues --   -0.37016  -0.36912  -0.35401  -0.35376  -0.33929
 Alpha  occ. eigenvalues --   -0.33216  -0.30738  -0.30573  -0.29463  -0.26786
 Alpha virt. eigenvalues --   -0.18477  -0.14501  -0.12725  -0.10791  -0.05518
 Alpha virt. eigenvalues --   -0.04636  -0.01879  -0.01252  -0.00066   0.00845
 Alpha virt. eigenvalues --    0.01861   0.02106   0.03399   0.03774   0.04546

 Mulliken atomic charges:
              1
     1  C    0.692041
     2  C    1.437379
     3  C    0.021640
     4  C    0.977470
     5  C    1.101339
     6  C    0.656149
     7  H   -0.865039
     8  H   -0.870395
     9  H   -0.824837
    10  H   -0.835043
    11  N    0.712764
    12  O   -0.662953
    13  O   -0.632710
    14  N    0.404371
    15  N   -0.588973
    16  S    2.322916
    17  C    1.076046
    18  O   -0.930731
    19  O   -0.887657
    20  O   -0.960708
    21  F   -0.501542
    22  F   -0.419320
    23  F   -0.422207
 Sum of Mulliken atomic charges =   0.00000

 Dipole moment (field-independent basis, Debye):
    X=              9.8341    Y=              4.7694    Z=              1.3220  Tot=             11.0093
 Quadrupole moment (field-independent basis, Debye-Ang):
   XX=           -147.3744   YY=           -102.1167   ZZ=           -117.2907
   XY=             19.9172   XZ=             -1.9668   YZ=              2.0913

  Exact polarizability: 244.831 -10.724 163.664   7.099  10.509 101.399
 Approx polarizability: 358.805 -16.082 289.858  13.710  30.380 173.613

                     1                      2                      3
                     A                      A                      A
 Frequencies --    16.3697                20.5094                30.5799
 Red. masses --    12.1271                15.5083                10.4514
 Frc consts  --     0.0019                 0.0038                 0.0058
 IR Inten    --     0.0523                 2.5360                 0.3608

                     4                      5                      6
                     A                      A                      A
 Frequencies --    42.7079                48.6756                57.6900
 Red. masses --    13.4374                13.9559                 5.5081
 Frc consts  --     0.0144                 0.0195                 0.0108
 IR Inten    --     5.7631                 2.7245                 0.3089

                     7                      8                      9
                     A                      A                      A
 Frequencies --    88.9562               109.5436               123.9854
 Red. masses --    10.1507                15.2417                11.8882
 Frc consts  --     0.0473                 0.1078                 0.1077
 IR Inten    --     5.1515                 1.9718                34.5067

                    10                     11                     12
                     A                      A                      A
 Frequencies --   170.1033               184.4459               208.8677
 Red. masses --    12.9163                17.0703                15.7827
 Frc consts  --     0.2202                 0.3422                 0.4057
 IR Inten    --    25.1005                 0.8901                40.8584

                    13                     14                     15
                     A                      A                      A
 Frequencies --   232.0029               261.0167               279.6619
 Red. masses --     8.3631                 7.4762                17.6497
 Frc consts  --     0.2652                 0.3001                 0.8133
 IR Inten    --    14.0536                26.4075                 8.4907

                    16                     17                     18
                     A                      A                      A
 Frequencies --   313.9270               328.8570               332.8215
 Red. masses --    17.2459                16.4112                13.9166
 Frc consts  --     1.0014                 1.0457                 0.9083
 IR Inten    --     0.9188                13.4342                22.0250

                    19                     20                     21
                     A                      A                      A
 Frequencies --   413.7629               423.8575               465.8696
 Red. masses --     2.9726                 6.3056                15.2422
 Frc consts  --     0.2998                 0.6674                 1.9491
 IR Inten    --     0.3596                12.9063                29.9904

                    22                     23                     24
                     A                      A                      A
 Frequencies --   478.0582               487.4005               529.8988
 Red. masses --    14.4494                11.4997                 5.3831
 Frc consts  --     1.9456                 1.6096                 0.8906
 IR Inten    --    56.2242                 3.1094                 5.3017

                    25                     26                     27
                     A                      A                      A
 Frequencies --   538.1452               540.4186               549.6286
 Red. masses --    17.8749                16.7124                 5.8584
 Frc consts  --     3.0499                 2.8757                 1.0427
 IR Inten    --     1.9129                 8.6332                 4.1655

                    28                     29                     30
                     A                      A                      A
 Frequencies --   572.1062               586.8165               639.8594
 Red. masses --     7.9508                21.0296                 7.2583
 Frc consts  --     1.5333                 4.2666                 1.7509
 IR Inten    --     1.0754               133.5491                 0.7571

                    31                     32                     33
                     A                      A                      A
 Frequencies --   683.5030               730.0621               767.5170
 Red. masses --     4.3315                18.0031                 3.6581
 Frc consts  --     1.1922                 5.6535                 1.2696
 IR Inten    --    10.6382                 1.7962                24.3601

                    34                     35                     36
                     A                      A                      A
 Frequencies --   775.5819               844.9060               864.7729
 Red. masses --     7.3102                 1.3669                10.0629
 Frc consts  --     2.5908                 0.5749                 4.4338
 IR Inten    --    22.0998                 8.4985                39.7843

                    37                     38                     39
                     A                      A                      A
 Frequencies --   910.7050               921.1415               997.0943
 Red. masses --     1.6596                10.3417                 1.3852
 Frc consts  --     0.8110                 5.1700                 0.8114
 IR Inten    --    14.8994               260.7218                 0.4432

                    40                     41                     42
                     A                      A                      A
 Frequencies --  1021.5988              1037.1336              1070.4217
 Red. masses --     2.8614                 1.4812                 6.1485
 Frc consts  --     1.7595                 0.9387                 4.1508
 IR Inten    --     7.8065                14.5014               127.9719

                    43                     44                     45
                     A                      A                      A
 Frequencies --  1107.3212              1119.7652              1120.6979
 Red. masses --     3.0625                 1.9182                 5.6949
 Frc consts  --     2.2125                 1.4171                 4.2142
 IR Inten    --    61.5122                31.1055                65.7642

                    46                     47                     48
                     A                      A                      A
 Frequencies --  1134.9309              1159.9146              1177.5504
 Red. masses --     2.4957                13.6700                13.2094
 Frc consts  --     1.8940                10.8361                10.7918
 IR Inten    --    63.6713               131.0478               272.5613

                    49                     50                     51
                     A                      A                      A
 Frequencies --  1195.1588              1223.2556              1313.9342
 Red. masses --     1.3898                13.6573                 1.3215
 Frc consts  --     1.1696                12.0406                 1.3442
 IR Inten    --    42.2274               533.2938                11.0315

                    52                     53                     54
                     A                      A                      A
 Frequencies --  1371.6426              1383.8844              1441.3868
 Red. masses --     8.3639                14.4957                 3.2629
 Frc consts  --     9.2713                16.3564                 3.9940
 IR Inten    --    49.5240               226.0853                 1.4014

                    55                     56                     57
                     A                      A                      A
 Frequencies --  1488.3991              1601.6433              1620.4944
 Red. masses --     2.1101                10.0035                 5.8359
 Frc consts  --     2.7542                15.1194                 9.0292
 IR Inten    --    17.7290               121.3991                18.3416

                    58                     59                     60
                     A                      A                      A
 Frequencies --  1649.7804              2301.5922              3109.1292
 Red. masses --    10.2352                13.9649                 1.1009
 Frc consts  --    16.4135                43.5858                 6.2703
 IR Inten    --   118.0511               203.5108               274.6714

                    61                     62                     63
                     A                      A                      A
 Frequencies --  3217.9298              3235.9007              3240.8716
 Red. masses --     1.0928                 1.0931                 1.0950
 Frc consts  --     6.6673                 6.7438                 6.7765
 IR Inten    --     1.6953                13.4095                12.5436

 - Thermochemistry -
 -------------------
 Temperature   298.150 Kelvin.  Pressure   1.00000 Atm.
 Atom     1 has atomic number  6 and mass  12.00000

 Molecular mass:   298.98238 amu.
 Principal axes and moments of inertia in atomic units:
                           1         2         3
     Eigenvalues --  2788.71056********************
           X            0.99999  -0.00175   0.00286
           Y            0.00171   0.99992   0.01275
           Z           -0.00288  -0.01274   0.99991
 This molecule is an asymmetric top.
 Rotational symmetry number  1.
 Warning -- assumption of classical behavior for rotation
           may cause significant error
 Rotational temperatures (Kelvin)      0.03106     0.00801     0.00683
 Rotational constants (GHZ):           0.64716     0.16690     0.14237
 Zero-point vibrational energy     334452.9 (Joules/Mol)
                                   79.93617 (Kcal/Mol)
 Warning -- explicit consideration of  29 degrees of freedom as
           vibrations may cause significant error
 Vibrational temperatures:     23.55    29.51    44.00    61.45    70.03
          (Kelvin)             83.00   127.99   157.61   178.39   244.74
                              265.38   300.51   333.80   375.54   402.37
                              451.67   473.15   478.86   595.31   609.84
                              670.28   687.82   701.26   762.41   774.27
                              777.54   790.79   823.13   844.30   920.61
                              983.41  1050.40  1104.28  1115.89  1215.63
                             1244.21  1310.30  1325.32  1434.59  1469.85
                             1492.20  1540.10  1593.19  1611.09  1612.43
                             1632.91  1668.86  1694.23  1719.56  1759.99
                             1890.46  1973.49  1991.10  2073.83  2141.47
                             2304.40  2331.53  2373.66  3311.47  4473.34
                             4629.88  4655.73  4662.89

 Zero-point correction=                           0.127386 (Hartree/Particle)
 Thermal correction to Energy=                    0.145452
 Thermal correction to Enthalpy=                  0.146396
 Thermal correction to Gibbs Free Energy=         0.076560
 Sum of electronic and zero-point Energies=          -1507.026286
 Sum of electronic and thermal Energies=             -1507.008221
 Sum of electronic and thermal Enthalpies=           -1507.007276
 Sum of electronic and thermal Free Energies=        -1507.077112

                     E (Thermal)             CV                S
                      KCal/Mol        Cal/Mol-Kelvin    Cal/Mol-Kelvin
 Total                   91.272             62.967            146.982
 Electronic               0.000              0.000              0.000
 Translational            0.889              2.981             42.983
 Rotational               0.889              2.981             34.302
 Vibrational             89.495             57.006             69.697
 Vibration     1          0.593              1.986              7.032
 Vibration     2          0.593              1.986              6.584
 Vibration     3          0.594              1.984              5.791
 Vibration     4          0.595              1.980              5.129
 Vibration     5          0.595              1.978              4.870
 Vibration     6          0.596              1.974              4.535
 Vibration     7          0.602              1.957              3.683
 Vibration     8          0.606              1.942              3.277
 Vibration     9          0.610              1.929              3.037
 Vibration    10          0.625              1.879              2.434
 Vibration    11          0.631              1.861              2.283
 Vibration    12          0.642              1.827              2.054
 Vibration    13          0.653              1.792              1.863
 Vibration    14          0.669              1.744              1.655
 Vibration    15          0.680              1.711              1.536
 Vibration    16          0.702              1.647              1.342
 Vibration    17          0.712              1.618              1.266
 Vibration    18          0.715              1.610              1.246
 Vibration    19          0.777              1.440              0.913
 Vibration    20          0.786              1.418              0.879
 Vibration    21          0.823              1.326              0.749
 Vibration    22          0.835              1.299              0.715
 Vibration    23          0.843              1.278              0.690
 Vibration    24          0.885              1.184              0.587
 Vibration    25          0.893              1.166              0.569
 Vibration    26          0.895              1.161              0.564
 Vibration    27          0.905              1.140              0.545
 Vibration    28          0.928              1.092              0.500
 Vibration    29          0.944              1.060              0.473

 Normal termination of Gaussian 09 at Thu Feb 23 11:22:05 2017.
