 Gaussian 09, Revision B.01,
 Gaussian 09:  EM64L-G09RevB.01 12-Aug-2010

 ----------------------------------------------------------------------
 #p opt=(verytight,maxcycles=1000) int=(grid=ultrafine) CPHF=(grid=fine
 ) freq rb3lyp/aug-cc-pvdz
 ----------------------------------------------------------------------

 ----------------------------
 CH3O-Ph-RB3LYP-aug-cc-pVDZ--
 ----------------------------
 Symbolic Z-matrix:
 Charge =  0 Multiplicity = 1

 SCF Done:  E(RB3LYP) =  -346.807130276     A.U. after   13 cycles
 SCF Done:  E(RB3LYP) =  -346.807373153     A.U. after   14 cycles
 SCF Done:  E(RB3LYP) =  -346.807388920     A.U. after   10 cycles
 SCF Done:  E(RB3LYP) =  -346.807390742     A.U. after    9 cycles
 SCF Done:  E(RB3LYP) =  -346.807390847     A.U. after    8 cycles
 SCF Done:  E(RB3LYP) =  -346.807390858     A.U. after    7 cycles
 SCF Done:  E(RB3LYP) =  -346.807390863     A.U. after    7 cycles
 SCF Done:  E(RB3LYP) =  -346.807390874     A.U. after    8 cycles
 SCF Done:  E(RB3LYP) =  -346.807390871     A.U. after    8 cycles
 SCF Done:  E(RB3LYP) =  -346.807390867     A.U. after    8 cycles
 SCF Done:  E(RB3LYP) =  -346.812512904     A.U. after   13 cycles
 SCF Done:  E(RB3LYP) =  -346.812561232     A.U. after   14 cycles
 SCF Done:  E(RB3LYP) =  -346.812569839     A.U. after   10 cycles
 SCF Done:  E(RB3LYP) =  -346.812572213     A.U. after   10 cycles
 SCF Done:  E(RB3LYP) =  -346.812572444     A.U. after   15 cycles
 SCF Done:  E(RB3LYP) =  -346.812572455     A.U. after    7 cycles
 SCF Done:  E(RB3LYP) =  -346.812572456     A.U. after   15 cycles
 SCF Done:  E(RB3LYP) =  -346.812572456     A.U. after    4 cycles
 SCF Done:  E(RB3LYP) =  -346.812572456     A.U. after    3 cycles
 Optimization completed.
    -- Stationary point found.
 Normal termination of Gaussian 09 at Fri Apr 21 09:32:41 2017.

 ----------------------------------------------------------------------
 #P Geom=AllCheck Guess=TCheck SCRF=Check GenChk RB3LYP/Aug-CC-pVDZ Fre
 q
 ----------------------------------------------------------------------

 CH3O-Ph-RB3LYP-aug-cc-pVDZ--
 ----------------------------
 Redundant internal coordinates taken from checkpoint file:
 /home/ubuntu/g09/Gau-12045.chk
 Charge =  0 Multiplicity = 1

                         Standard orientation:
 ---------------------------------------------------------------------
 Center     Atomic      Atomic             Coordinates (Angstroms)
 Number     Number       Type             X           Y           Z
 ---------------------------------------------------------------------
      1          6           0        0.035191    1.063715    0.000000
      2          6           0       -1.336214    1.354371    0.000000
      3          6           0       -2.286714    0.333590    0.000000
      4          6           0       -1.855567   -1.000560    0.000000
      5          6           0       -0.497038   -1.306699    0.000000
      6          6           0        0.455152   -0.273832    0.000000
      7          1           0        0.753260    1.880299    0.000000
      8          1           0       -1.655850    2.397262    0.000000
      9          1           0       -2.586247   -1.810436    0.000000
     10          1           0       -0.149013   -2.339294    0.000000
     11          8           0        1.763888   -0.674621    0.000000
     12          6           0        2.773584    0.327608    0.000000
     13          1           0        3.727011   -0.209820    0.000000
     14          1           0        2.709976    0.960010    0.899244
     15          1           0        2.709976    0.960011   -0.899243
     16          1           0       -3.350577    0.569779    0.000000
 ---------------------------------------------------------------------

 SCF Done:  E(RB3LYP) =  -346.812572456     A.U. after    1 cycles

 The electronic state is 1-A.
 Alpha  occ. eigenvalues --  -19.18205 -10.25097 -10.24420 -10.19453 -10.19341
 Alpha  occ. eigenvalues --  -10.19116 -10.18748 -10.18561  -1.07252  -0.85516
 Alpha  occ. eigenvalues --   -0.76130  -0.75042  -0.69943  -0.61347  -0.59447
 Alpha  occ. eigenvalues --   -0.53965  -0.48852  -0.48272  -0.47326  -0.44930
 Alpha  occ. eigenvalues --   -0.42695  -0.41690  -0.38270  -0.37077  -0.36177
 Alpha  occ. eigenvalues --   -0.33280  -0.32665  -0.25877  -0.22815
 Alpha virt. eigenvalues --   -0.01799  -0.01108  -0.00352   0.00092   0.00783
 Alpha virt. eigenvalues --    0.02299   0.02335   0.02406   0.03609   0.05060
 Alpha virt. eigenvalues --    0.05822   0.06733   0.07337   0.07816   0.09353

 Mulliken atomic charges:
              1
     1  C    0.913640
     2  C    0.871576
     3  C    0.523281
     4  C    0.884706
     5  C    0.495284
     6  C    0.967886
     7  H   -1.176267
     8  H   -0.763521
     9  H   -0.749732
    10  H   -0.825726
    11  O   -0.675579
    12  C    1.206529
    13  H   -0.551671
    14  H   -0.190606
    15  H   -0.190606
    16  H   -0.739195
 Sum of Mulliken atomic charges =   0.00000

 Dipole moment (field-independent basis, Debye):
    X=              0.8091    Y=              1.0279    Z=              0.0000  Tot=              1.3081
 Quadrupole moment (field-independent basis, Debye-Ang):
   XX=            -41.5701   YY=            -45.2947   ZZ=            -51.6295
   XY=              2.8699   XZ=              0.0000   YZ=              0.0000

  Exact polarizability: 117.855   1.420  94.497   0.000   0.000  57.672
 Approx polarizability: 172.550  -1.095 157.949   0.000   0.000  87.187

                     1                      2                      3
                     A                      A                      A
 Frequencies --    95.6749               210.1301               259.4805
 Red. masses --     3.1479                 1.9091                 3.0615
 Frc consts  --     0.0170                 0.0497                 0.1214
 IR Inten    --     4.0748                 0.1423                 2.3405

                     4                      5                      6
                     A                      A                      A
 Frequencies --   275.5473               425.0512               445.2011
 Red. masses --     1.5339                 2.9331                 4.6896
 Frc consts  --     0.0686                 0.3122                 0.5476
 IR Inten    --     0.2982                 0.0025                 0.8097

                     7                      8                      9
                     A                      A                      A
 Frequencies --   519.8394               558.1507               623.5740
 Red. masses --     2.6925                 4.9432                 6.4135
 Frc consts  --     0.4287                 0.9073                 1.4693
 IR Inten    --    10.8491                 6.4425                 0.4558

                    10                     11                     12
                     A                      A                      A
 Frequencies --   706.2239               762.0451               793.9825
 Red. masses --     1.8343                 1.8127                 5.1469
 Frc consts  --     0.5390                 0.6202                 1.9117
 IR Inten    --    33.5779                51.1324                15.3229

                    13                     14                     15
                     A                      A                      A
 Frequencies --   823.4834               892.2686               970.7504
 Red. masses --     1.2472                 1.4930                 1.3572
 Frc consts  --     0.4983                 0.7003                 0.7536
 IR Inten    --     0.2182                 6.7334                 0.0587

                    16                     17                     18
                     A                      A                      A
 Frequencies --   990.9734              1001.8663              1039.4232
 Red. masses --     1.3090                 5.5083                 2.6263
 Frc consts  --     0.7574                 3.2575                 1.6718
 IR Inten    --     0.1683                 0.6162                 3.2147

                    19                     20                     21
                     A                      A                      A
 Frequencies --  1064.7157              1098.4181              1157.9776
 Red. masses --     3.9214                 1.4928                 1.2759
 Frc consts  --     2.6192                 1.0612                 1.0081
 IR Inten    --    52.7835                 9.6567                 0.8861

                    22                     23                     24
                     A                      A                      A
 Frequencies --  1167.6753              1186.2622              1193.7943
 Red. masses --     1.0927                 1.1446                 1.4008
 Frc consts  --     0.8778                 0.9490                 1.1762
 IR Inten    --     2.4344                10.8298                12.5784

                    25                     26                     27
                     A                      A                      A
 Frequencies --  1268.0541              1326.6574              1362.0662
 Red. masses --     4.0080                 1.4529                 4.9082
 Frc consts  --     3.7971                 1.5066                 5.3650
 IR Inten    --   225.9107                 2.9461                19.3506

                    28                     29                     30
                     A                      A                      A
 Frequencies --  1448.7814              1469.9688              1471.6869
 Red. masses --     1.1797                 1.7432                 1.0455
 Frc consts  --     1.4589                 2.2192                 1.3342
 IR Inten    --     8.4891                 8.7834                 7.8379

                    31                     32                     33
                     A                      A                      A
 Frequencies --  1482.6406              1515.0381              1626.1809
 Red. masses --     1.2655                 2.3476                 6.2106
 Frc consts  --     1.6390                 3.1748                 9.6765
 IR Inten    --    17.4869                95.0428                22.9052

                    34                     35                     36
                     A                      A                      A
 Frequencies --  1643.4106              3006.8288              3072.0736
 Red. masses --     6.0064                 1.0347                 1.1059
 Frc consts  --     9.5577                 5.5117                 6.1495
 IR Inten    --    74.1728                53.7743                36.3132

                    37                     38                     39
                     A                      A                      A
 Frequencies --  3146.3969              3172.3102              3179.3143
 Red. masses --     1.0994                 1.0849                 1.0893
 Frc consts  --     6.4129                 6.4328                 6.4875
 IR Inten    --    20.8646                 1.5134                10.6571

                    40                     41                     42
                     A                      A                      A
 Frequencies --  3194.8745              3201.7999              3215.7769
 Red. masses --     1.0929                 1.0974                 1.0925
 Frc consts  --     6.5724                 6.6285                 6.6563
 IR Inten    --    18.2347                 9.6798                 5.6440

 - Thermochemistry -
 -------------------
 Temperature   298.150 Kelvin.  Pressure   1.00000 Atm.
 Atom     1 has atomic number  6 and mass  12.00000

 Molecular mass:   108.05751 amu.
 Principal axes and moments of inertia in atomic units:
                           1         2         3
     Eigenvalues --   359.835091160.413051508.60694
           X            0.99975   0.02227   0.00000
           Y           -0.02227   0.99975   0.00000
           Z            0.00000   0.00000   1.00000
 This molecule is an asymmetric top.
 Rotational symmetry number  1.
 Rotational temperatures (Kelvin)      0.24070     0.07464     0.05741
 Rotational constants (GHZ):           5.01547     1.55526     1.19630
 Zero-point vibrational energy     347314.0 (Joules/Mol)
                                   83.01004 (Kcal/Mol)
 Warning -- explicit consideration of   8 degrees of freedom as
           vibrations may cause significant error
 Vibrational temperatures:    137.65   302.33   373.33   396.45   611.55
          (Kelvin)            640.54   747.93   803.05   897.18  1016.10
                             1096.41  1142.36  1184.81  1283.77  1396.69
                             1425.79  1441.46  1495.50  1531.89  1580.38
                             1666.07  1680.02  1706.76  1717.60  1824.44
                             1908.76  1959.71  2084.47  2114.95  2117.43
                             2133.19  2179.80  2339.71  2364.50  4326.15
                             4420.02  4526.96  4564.24  4574.32  4596.71
                             4606.67  4626.78

 Zero-point correction=                           0.132285 (Hartree/Particle)
 Thermal correction to Energy=                    0.139173
 Thermal correction to Enthalpy=                  0.140117
 Thermal correction to Gibbs Free Energy=         0.101223
 Sum of electronic and zero-point Energies=           -346.680288
 Sum of electronic and thermal Energies=              -346.673399
 Sum of electronic and thermal Enthalpies=            -346.672455
 Sum of electronic and thermal Free Energies=         -346.711349

                     E (Thermal)             CV                S
                      KCal/Mol        Cal/Mol-Kelvin    Cal/Mol-Kelvin
 Total                   87.332             26.524             81.859
 Electronic               0.000              0.000              0.000
 Translational            0.889              2.981             39.949
 Rotational               0.889              2.981             27.934
 Vibrational             85.555             20.563             13.975
 Vibration     1          0.603              1.952              3.541
 Vibration     2          0.642              1.825              2.043
 Vibration     3          0.668              1.747              1.665
 Vibration     4          0.677              1.719              1.561
 Vibration     5          0.787              1.416              0.875
 Vibration     6          0.805              1.371              0.810
 Vibration     7          0.875              1.206              0.610
 Vibration     8          0.914              1.122              0.528

 Optimization completed.
    -- Stationary point found.
 Normal termination of Gaussian 09 at Fri Apr 21 09:48:10 2017.
