 Gaussian 09, Revision B.01,
 Gaussian 09:  EM64L-G09RevB.01 12-Aug-2010

 ----------------------------------------------------------------------
 #p Temperature=348.15 int=(grid=ultrafine) CPHF=(grid=fine) freq rb3ly
 p/aug-cc-pvdz
 ----------------------------------------------------------------------

 ----------------------------
 CH3O-Ph-RB3LYP-aug-cc-pVDZ--
 ----------------------------
 Symbolic Z-matrix:
 Charge =  0 Multiplicity = 1

                         Standard orientation:
 ---------------------------------------------------------------------
 Center     Atomic      Atomic             Coordinates (Angstroms)
 Number     Number       Type             X           Y           Z
 ---------------------------------------------------------------------
      1          6           0       -0.929611   -0.518210    0.000000
      2          6           0       -0.471687   -1.843173    0.000000
      3          6           0        0.892998   -2.131403    0.000000
      4          6           0        1.813940   -1.074189    0.000000
      5          6           0        1.375916    0.247727    0.000000
      6          6           0        0.000000    0.531173    0.000000
      7          1           0       -1.999508   -0.323880    0.000000
      8          1           0       -1.200536   -2.654696    0.000000
      9          1           0        2.884588   -1.282783    0.000000
     10          1           0        2.081303    1.078266    0.000000
     11          8           0       -0.331253    1.859218    0.000000
     12          6           0       -1.710557    2.207730    0.000000
     13          1           0       -1.741556    3.301758    0.000000
     14          1           0       -2.219659    1.827218    0.899240
     15          1           0       -2.219659    1.827218   -0.899240
     16          1           0        1.239057   -3.164771    0.000000
 ---------------------------------------------------------------------

 SCF Done:  E(RB3LYP) =  -346.812572480     A.U. after   13 cycles

 The electronic state is 1-A'.
 Alpha  occ. eigenvalues --  -19.18205 -10.25097 -10.24420 -10.19453 -10.19341
 Alpha  occ. eigenvalues --  -10.19116 -10.18748 -10.18561  -1.07252  -0.85516
 Alpha  occ. eigenvalues --   -0.76130  -0.75042  -0.69943  -0.61347  -0.59447
 Alpha  occ. eigenvalues --   -0.53965  -0.48852  -0.48271  -0.47326  -0.44930
 Alpha  occ. eigenvalues --   -0.42695  -0.41690  -0.38270  -0.37077  -0.36177
 Alpha  occ. eigenvalues --   -0.33280  -0.32665  -0.25877  -0.22815
 Alpha virt. eigenvalues --   -0.01799  -0.01108  -0.00352   0.00093   0.00783
 Alpha virt. eigenvalues --    0.02299   0.02335   0.02405   0.03610   0.05060
 Alpha virt. eigenvalues --    0.05822   0.06734   0.07338   0.07816   0.09353

 Mulliken atomic charges:
              1
     1  C    0.913673
     2  C    0.871719
     3  C    0.523257
     4  C    0.884701
     5  C    0.495209
     6  C    0.967771
     7  H   -1.176224
     8  H   -0.763516
     9  H   -0.749722
    10  H   -0.825749
    11  O   -0.675588
    12  C    1.206545
    13  H   -0.551658
    14  H   -0.190618
    15  H   -0.190618
    16  H   -0.739183
 Sum of Mulliken atomic charges =   0.00000

 Dipole moment (field-independent basis, Debye):
    X=             -1.2978    Y=              0.1633    Z=              0.0000  Tot=              1.3081
 Quadrupole moment (field-independent basis, Debye-Ang):
   XX=            -41.7693   YY=            -45.0956   ZZ=            -51.6294
   XY=             -2.9898   XZ=              0.0000   YZ=              0.0000

  Exact polarizability: 101.958 -10.983 110.392   0.000   0.000  57.672
 Approx polarizability: 160.861  -5.936 169.637   0.000   0.000  87.187

                     1                      2                      3
                    A"                     A"                     A'
 Frequencies --    96.1940               209.9851               259.1918
 Red. masses --     3.1489                 1.9041                 3.0617
 Frc consts  --     0.0172                 0.0495                 0.1212
 IR Inten    --     4.0734                 0.1401                 2.3344

                     4                      5                      6
                    A"                     A"                     A'
 Frequencies --   275.4968               424.8835               445.1208
 Red. masses --     1.5371                 2.9334                 4.6897
 Frc consts  --     0.0687                 0.3120                 0.5475
 IR Inten    --     0.3039                 0.0026                 0.8086

                     7                      8                      9
                    A"                     A'                     A'
 Frequencies --   519.8446               558.2317               623.5947
 Red. masses --     2.6910                 4.9437                 6.4134
 Frc consts  --     0.4285                 0.9077                 1.4694
 IR Inten    --    10.8612                 6.4415                 0.4566

                    10                     11                     12
                    A"                     A"                     A'
 Frequencies --   706.2054               762.0349               793.9880
 Red. masses --     1.8347                 1.8123                 5.1472
 Frc consts  --     0.5391                 0.6201                 1.9118
 IR Inten    --    33.5525                51.1547                15.3256

                    13                     14                     15
                    A"                     A"                     A"
 Frequencies --   823.4096               892.2296               970.7086
 Red. masses --     1.2473                 1.4932                 1.3573
 Frc consts  --     0.4982                 0.7004                 0.7535
 IR Inten    --     0.2174                 6.7279                 0.0601

                    16                     17                     18
                    A"                     A'                     A'
 Frequencies --   990.9535              1001.8448              1039.3653
 Red. masses --     1.3090                 5.5018                 2.6210
 Frc consts  --     0.7574                 3.2536                 1.6683
 IR Inten    --     0.1663                 0.6148                 3.1864

                    19                     20                     21
                    A'                     A'                     A"
 Frequencies --  1064.6680              1098.3755              1158.2082
 Red. masses --     3.9328                 1.4923                 1.2759
 Frc consts  --     2.6265                 1.0607                 1.0085
 IR Inten    --    52.7167                 9.6860                 0.8847

                    22                     23                     24
                    A'                     A'                     A'
 Frequencies --  1167.6948              1186.1857              1193.7003
 Red. masses --     1.0929                 1.1421                 1.4049
 Frc consts  --     0.8780                 0.9468                 1.1795
 IR Inten    --     2.4287                11.3732                12.1968

                    25                     26                     27
                    A'                     A'                     A'
 Frequencies --  1268.0887              1326.5780              1362.0364
 Red. masses --     4.0057                 1.4519                 4.9252
 Frc consts  --     3.7952                 1.5055                 5.3833
 IR Inten    --   225.8635                 2.9273                19.3244

                    28                     29                     30
                    A'                     A'                     A"
 Frequencies --  1448.9569              1469.9752              1471.7922
 Red. masses --     1.1799                 1.7409                 1.0454
 Frc consts  --     1.4595                 2.2164                 1.3342
 IR Inten    --     8.5852                 8.7069                 7.8498

                    31                     32                     33
                    A'                     A'                     A'
 Frequencies --  1482.5645              1514.9939              1626.1541
 Red. masses --     1.2662                 2.3476                 6.2124
 Frc consts  --     1.6397                 3.1746                 9.6790
 IR Inten    --    17.3222                95.1854                22.8179

                    34                     35                     36
                    A'                     A'                     A"
 Frequencies --  1643.4037              3006.8799              3072.1384
 Red. masses --     6.0064                 1.0347                 1.1059
 Frc consts  --     9.5577                 5.5118                 6.1498
 IR Inten    --    74.2666                53.7834                36.3128

                    37                     38                     39
                    A'                     A'                     A'
 Frequencies --  3146.3194              3172.2577              3179.2354
 Red. masses --     1.0995                 1.0849                 1.0893
 Frc consts  --     6.4126                 6.4325                 6.4872
 IR Inten    --    20.8567                 1.5242                10.6578

                    40                     41                     42
                    A'                     A'                     A'
 Frequencies --  3194.8407              3201.7400              3215.5882
 Red. masses --     1.0929                 1.0974                 1.0925
 Frc consts  --     6.5722                 6.6283                 6.6557
 IR Inten    --    18.1828                 9.7278                 5.6369

 - Thermochemistry -
 -------------------
 Temperature   348.150 Kelvin.  Pressure   1.00000 Atm.
 Atom     1 has atomic number  6 and mass  12.00000

 Molecular mass:   108.05751 amu.
 Principal axes and moments of inertia in atomic units:
                           1         2         3
     Eigenvalues --   359.834461160.411941508.60530
           X           -0.49631   0.86815   0.00000
           Y            0.86815   0.49631   0.00000
           Z            0.00000   0.00000   1.00000
 This molecule is an asymmetric top.
 Rotational symmetry number  1.
 Rotational temperatures (Kelvin)      0.24070     0.07464     0.05741
 Rotational constants (GHZ):           5.01548     1.55526     1.19630
 Zero-point vibrational energy     347309.8 (Joules/Mol)
                                   83.00903 (Kcal/Mol)
 Warning -- explicit consideration of  10 degrees of freedom as
           vibrations may cause significant error
 Vibrational temperatures:    138.40   302.12   372.92   396.38   611.31
          (Kelvin)            640.43   747.94   803.17   897.21  1016.07
                             1096.40  1142.37  1184.70  1283.72  1396.63
                             1425.76  1441.43  1495.41  1531.82  1580.32
                             1666.40  1680.05  1706.65  1717.47  1824.49
                             1908.65  1959.66  2084.72  2114.96  2117.58
                             2133.08  2179.74  2339.67  2364.49  4326.22
                             4420.12  4526.85  4564.17  4574.20  4596.66
                             4606.58  4626.51

 Zero-point correction=                           0.132283 (Hartree/Particle)
 Thermal correction to Energy=                    0.141468
 Thermal correction to Enthalpy=                  0.142570
 Thermal correction to Gibbs Free Energy=         0.094513
 Sum of electronic and zero-point Energies=           -346.680289
 Sum of electronic and thermal Energies=              -346.671105
 Sum of electronic and thermal Enthalpies=            -346.670002
 Sum of electronic and thermal Free Energies=         -346.718060

                     E (Thermal)             CV                S
                      KCal/Mol        Cal/Mol-Kelvin    Cal/Mol-Kelvin
 Total                   88.772             31.104             86.620
 Electronic               0.000              0.000              0.000
 Translational            1.038              2.981             40.719
 Rotational               1.038              2.981             28.397
 Vibrational             86.697             25.142             17.504
 Vibration     1          0.701              1.961              3.833
 Vibration     2          0.735              1.867              2.330
 Vibration     3          0.757              1.808              1.943
 Vibration     4          0.765              1.786              1.833
 Vibration     5          0.861              1.547              1.106
 Vibration     6          0.877              1.510              1.034
 Vibration     7          0.939              1.372              0.810
 Vibration     8          0.975              1.299              0.715
 Vibration     9          1.038              1.175              0.578
 Vibration    10          1.125              1.022              0.442

 Optimization completed.
    -- Stationary point found.
 Normal termination of Gaussian 09 at Sat Apr 30 02:48:22 2005.
