 Gaussian 09, Revision B.01,
 Gaussian 09:  EM64L-G09RevB.01 12-Aug-2010

 ----------------------------------------------------------------------
 #p Temperature=348.15 int=(grid=ultrafine) CPHF=(grid=fine) freq rb3ly
 p/aug-cc-pvdz
 ----------------------------------------------------------------------

 --------------------------------------
 m-NO2-Ph-Ph-m-NO2-RB3LYP-aug-cc-pVDZ--
 --------------------------------------
 Symbolic Z-matrix:
 Charge =  0 Multiplicity = 1

                         Standard orientation:
 ---------------------------------------------------------------------
 Center     Atomic      Atomic             Coordinates (Angstroms)
 Number     Number       Type             X           Y           Z
 ---------------------------------------------------------------------
      1          6           0       -3.057930    0.177210   -0.057891
      2          6           0       -1.803430   -0.429340   -0.068041
      3          6           0       -0.675050    0.311780    0.314789
      4          6           0       -0.855100    1.654440    0.697869
      5          6           0       -2.122030    2.242660    0.699459
      6          6           0       -3.245430    1.506920    0.319059
      7          1           0       -1.722470   -1.461750   -0.397321
      8          1           0        0.003800    2.242260    1.020219
      9          1           0       -2.236499    3.281570    1.007119
     10          1           0       -4.242760    1.938350    0.311239
     11          6           0        0.675120   -0.311760    0.314639
     12          6           0        0.855270   -1.654410    0.697739
     13          6           0        1.803420    0.429339   -0.068501
     14          6           0        2.122200   -2.242621    0.699039
     15          1           0       -0.003560   -2.242210    1.020319
     16          6           0        3.057910   -0.177211   -0.058611
     17          1           0        1.722380    1.461729   -0.397801
     18          6           0        3.245510   -1.506901    0.318339
     19          1           0        2.236740   -3.281531    1.006729
     20          1           0        4.242840   -1.938341    0.310309
     21          7           0       -4.232640   -0.621620   -0.470501
     22          8           0       -4.044650   -1.793380   -0.788441
     23          8           0       -5.327950   -0.066880   -0.468751
     24          7           0        4.232520    0.621599   -0.471551
     25          8           0        4.044460    1.793339   -0.789491
     26          8           0        5.327840    0.066849   -0.470041
 ---------------------------------------------------------------------

 SCF Done:  E(RB3LYP) =  -872.431206480     A.U. after   57 cycles

 The electronic state is 1-A.
 Alpha  occ. eigenvalues --  -19.19910 -19.19910 -19.19896 -19.19895 -14.58670
 Alpha  occ. eigenvalues --  -14.58670 -10.27286 -10.27286 -10.24626 -10.24600
 Alpha  occ. eigenvalues --  -10.23796 -10.23795 -10.23697 -10.23697 -10.23628
 Alpha  occ. eigenvalues --  -10.23628 -10.23373 -10.23373  -1.24909  -1.24908
 Alpha  occ. eigenvalues --   -1.07644  -1.07644  -0.92402  -0.90787  -0.84654
 Alpha  occ. eigenvalues --   -0.82499  -0.80955  -0.77723  -0.72912  -0.71962
 Alpha  occ. eigenvalues --   -0.67468  -0.64817  -0.61869  -0.60596  -0.58835
 Alpha  occ. eigenvalues --   -0.56688  -0.55335  -0.55329  -0.53867  -0.53665
 Alpha  occ. eigenvalues --   -0.53336  -0.52580  -0.50707  -0.48848  -0.48363
 Alpha  occ. eigenvalues --   -0.47531  -0.46687  -0.42408  -0.41854  -0.41028
 Alpha  occ. eigenvalues --   -0.40460  -0.40296  -0.38388  -0.33545  -0.33436
 Alpha  occ. eigenvalues --   -0.33247  -0.33115  -0.32463  -0.31456  -0.31406
 Alpha  occ. eigenvalues --   -0.30400  -0.30298  -0.27549
 Alpha virt. eigenvalues --   -0.11513  -0.11491  -0.07813  -0.04438  -0.03244
 Alpha virt. eigenvalues --   -0.02158  -0.01379  -0.01176   0.00016   0.00652
 Alpha virt. eigenvalues --    0.00945   0.01764   0.02413   0.03183   0.03377

 Mulliken atomic charges:
              1
     1  C   -0.350722
     2  C    1.300192
     3  C    1.383434
     4  C    0.749607
     5  C   -0.080861
     6  C    1.308999
     7  H   -1.064834
     8  H   -1.000347
     9  H   -0.789869
    10  H   -0.863600
    11  C    1.383439
    12  C    0.749642
    13  C    1.300257
    14  C   -0.080974
    15  H   -1.000337
    16  C   -0.350751
    17  H   -1.064849
    18  C    1.308964
    19  H   -0.789840
    20  H   -0.863587
    21  N    0.788099
    22  O   -0.676118
    23  O   -0.703963
    24  N    0.788101
    25  O   -0.676110
    26  O   -0.703972
 Sum of Mulliken atomic charges =   0.00000

 Dipole moment (field-independent basis, Debye):
    X=              0.0002    Y=              0.0002    Z=              2.5855  Tot=              2.5855
 Quadrupole moment (field-independent basis, Debye-Ang):
   XX=           -145.3113   YY=            -95.9161   ZZ=           -103.8991
   XY=            -19.9085   XZ=              0.0055   YZ=              0.0022

  Exact polarizability: 270.612  -9.667 188.318  -0.020  -0.001 101.499
 Approx polarizability: 395.870 -29.648 356.668  -0.027   0.000 168.342

                     1                      2                      3
                     A                      A                      A
 Frequencies --    29.9094                42.3994                47.4149
 Red. masses --     8.4371                13.9195                13.2769
 Frc consts  --     0.0044                 0.0147                 0.0176
 IR Inten    --     4.0145                 0.0175                 0.2884

                     4                      5                      6
                     A                      A                      A
 Frequencies --    76.5322                89.7249               165.5863
 Red. masses --     7.3285                 5.0266                 5.6568
 Frc consts  --     0.0253                 0.0238                 0.0914
 IR Inten    --     2.9711                 0.3757                 0.2584

                     7                      8                      9
                     A                      A                      A
 Frequencies --   170.4797               187.6935               234.7892
 Red. masses --     8.2237                 5.2793                 4.8142
 Frc consts  --     0.1408                 0.1096                 0.1564
 IR Inten    --     0.3018                 2.0170                 1.0111

                    10                     11                     12
                     A                      A                      A
 Frequencies --   278.0431               300.1666               370.3396
 Red. masses --     8.9888                 5.4832                 5.3954
 Frc consts  --     0.4094                 0.2911                 0.4360
 IR Inten    --     0.0855                 0.3032                 0.3314

                    13                     14                     15
                     A                      A                      A
 Frequencies --   396.1710               414.1722               435.3677
 Red. masses --     9.4203                 4.8615                 3.2720
 Frc consts  --     0.8711                 0.4913                 0.3654
 IR Inten    --     1.7256                 0.2692                 0.5949

                    16                     17                     18
                     A                      A                      A
 Frequencies --   441.8047               502.9318               530.2195
 Red. masses --     3.9105                 6.6584                 7.9278
 Frc consts  --     0.4497                 0.9923                 1.3131
 IR Inten    --     0.4728                 2.3732                 3.0521

                    19                     20                     21
                     A                      A                      A
 Frequencies --   565.3227               584.9918               627.9611
 Red. masses --     5.1752                 5.0587                 7.1894
 Frc consts  --     0.9745                 1.0200                 1.6704
 IR Inten    --     0.5905                 0.2824                 9.1799

                    22                     23                     24
                     A                      A                      A
 Frequencies --   669.2618               689.1673               697.2998
 Red. masses --     7.0944                 2.6790                 2.2672
 Frc consts  --     1.8722                 0.7497                 0.6495
 IR Inten    --     0.1465                19.9588                 4.5057

                    25                     26                     27
                     A                      A                      A
 Frequencies --   707.2796               747.4209               768.1931
 Red. masses --     4.5301                 2.9107                 5.5162
 Frc consts  --     1.3352                 0.9580                 1.9179
 IR Inten    --    41.9424                71.5608                 1.5047

                    28                     29                     30
                     A                      A                      A
 Frequencies --   793.6174               817.5236               823.5504
 Red. masses --     9.7796                 1.8095                 1.6293
 Frc consts  --     3.6291                 0.7125                 0.6511
 IR Inten    --     4.0945                16.6125                 1.4749

                    31                     32                     33
                     A                      A                      A
 Frequencies --   866.1653               911.2618               919.9398
 Red. masses --    11.0821                 1.5772                 4.1566
 Frc consts  --     4.8986                 0.7716                 2.0726
 IR Inten    --    56.7678                 3.9526                 9.1746

                    34                     35                     36
                     A                      A                      A
 Frequencies --   934.8796               948.3661               949.7623
 Red. masses --     1.6402                 1.4550                 1.4332
 Frc consts  --     0.8446                 0.7710                 0.7617
 IR Inten    --     3.1479                 3.9361                 0.9637

                    37                     38                     39
                     A                      A                      A
 Frequencies --  1001.6716              1002.1594              1010.1381
 Red. masses --     1.3776                 1.3509                 6.2325
 Frc consts  --     0.8144                 0.7994                 3.7469
 IR Inten    --     0.2449                 0.1602                 0.6037

                    40                     41                     42
                     A                      A                      A
 Frequencies --  1014.5272              1066.9306              1102.1595
 Red. masses --     5.4093                 2.2026                 1.4333
 Frc consts  --     3.2804                 1.4772                 1.0258
 IR Inten    --     0.0179                 6.7002                 5.4664

                    43                     44                     45
                     A                      A                      A
 Frequencies --  1105.0958              1115.9356              1120.3706
 Red. masses --     1.5649                 1.9675                 2.6266
 Frc consts  --     1.1260                 1.4436                 1.9426
 IR Inten    --    16.1758                 0.7844                89.8054

                    46                     47                     48
                     A                      A                      A
 Frequencies --  1186.4551              1186.9043              1281.4574
 Red. masses --     1.1659                 1.1402                 1.9541
 Frc consts  --     0.9670                 0.9464                 1.8906
 IR Inten    --     3.1140                 0.0833                 0.0104

                    49                     50                     51
                     A                      A                      A
 Frequencies --  1286.1095              1319.8074              1352.2227
 Red. masses --     1.5042                 1.8193                 3.8613
 Frc consts  --     1.4659                 1.8671                 4.1599
 IR Inten    --    14.7528                 0.2742                17.8105

                    52                     53                     54
                     A                      A                      A
 Frequencies --  1359.4048              1381.8007              1384.1554
 Red. masses --     8.8921                14.1336                14.3384
 Frc consts  --     9.6818                15.8999                16.1853
 IR Inten    --     1.1266               579.1292                40.1568

                    55                     56                     57
                     A                      A                      A
 Frequencies --  1439.6704              1472.4512              1489.9372
 Red. masses --     3.3023                 3.0860                 2.3539
 Frc consts  --     4.0327                 3.9421                 3.0788
 IR Inten    --     9.2365                 0.6627                16.1726

                    58                     59                     60
                     A                      A                      A
 Frequencies --  1519.3196              1594.1975              1596.7748
 Red. masses --     3.1654                 8.8300                10.1983
 Frc consts  --     4.3051                13.2219                15.3202
 IR Inten    --     0.8097               412.9367                 9.4746

                    61                     62                     63
                     A                      A                      A
 Frequencies --  1613.0852              1626.3009              1660.4460
 Red. masses --     6.6710                 6.9486                 7.5895
 Frc consts  --    10.2272                10.8280                12.3286
 IR Inten    --    97.7405                 0.8251                 0.6627

                    64                     65                     66
                     A                      A                      A
 Frequencies --  1661.9499              3187.5502              3187.6954
 Red. masses --     7.4994                 1.0879                 1.0878
 Frc consts  --    12.2043                 6.5123                 6.5125
 IR Inten    --    18.7047                 0.5275                 8.0415

                    67                     68                     69
                     A                      A                      A
 Frequencies --  3202.5242              3202.7045              3229.8401
 Red. masses --     1.0947                 1.0949                 1.0911
 Frc consts  --     6.6149                 6.6167                 6.7061
 IR Inten    --     7.9408                 1.5384                 6.0257

                    70                     71                     72
                     A                      A                      A
 Frequencies --  3229.9125              3235.8080              3235.8777
 Red. masses --     1.0913                 1.0939                 1.0939
 Frc consts  --     6.7076                 6.7484                 6.7488
 IR Inten    --     2.7147                 8.3402                 1.9316

 - Thermochemistry -
 -------------------
 Temperature   348.150 Kelvin.  Pressure   1.00000 Atm.
 Atom     1 has atomic number  6 and mass  12.00000

 Molecular mass:   244.04841 amu.
 Principal axes and moments of inertia in atomic units:
                           1         2         3
     Eigenvalues --  1685.112579798.23526**********
           X            0.99994  -0.01136   0.00012
           Y            0.01136   0.99994   0.00002
           Z           -0.00012  -0.00002   1.00000
 This molecule is an asymmetric top.
 Rotational symmetry number  1.
 Warning -- assumption of classical behavior for rotation
           may cause significant error
 Rotational temperatures (Kelvin)      0.05140     0.00884     0.00787
 Rotational constants (GHZ):           1.07099     0.18419     0.16391
 Zero-point vibrational energy     486874.5 (Joules/Mol)
                                  116.36580 (Kcal/Mol)
 Warning -- explicit consideration of  25 degrees of freedom as
           vibrations may cause significant error
 Vibrational temperatures:     43.03    61.00    68.22   110.11   129.09
          (Kelvin)            238.24   245.28   270.05   337.81   400.04
                              431.87   532.84   570.00   595.90   626.40
                              635.66   723.61   762.87   813.37   841.67
                              903.49   962.92   991.56  1003.26  1017.62
                             1075.37  1105.26  1141.84  1176.23  1184.90
                             1246.22  1311.10  1323.59  1345.08  1364.49
                             1366.49  1441.18  1441.88  1453.36  1459.68
                             1535.07  1585.76  1589.98  1605.58  1611.96
                             1707.04  1707.69  1843.73  1850.42  1898.91
                             1945.54  1955.88  1988.10  1991.49  2071.36
                             2118.53  2143.68  2185.96  2293.69  2297.40
                             2320.87  2339.88  2389.01  2391.17  4586.17
                             4586.38  4607.71  4607.97  4647.01  4647.12
                             4655.60  4655.70

 Zero-point correction=                           0.185441 (Hartree/Particle)
 Thermal correction to Energy=                    0.204175
 Thermal correction to Enthalpy=                  0.205277
 Thermal correction to Gibbs Free Energy=         0.131965
 Sum of electronic and zero-point Energies=           -872.245766
 Sum of electronic and thermal Energies=              -872.227032
 Sum of electronic and thermal Enthalpies=            -872.225929
 Sum of electronic and thermal Free Energies=         -872.299242

                     E (Thermal)             CV                S
                      KCal/Mol        Cal/Mol-Kelvin    Cal/Mol-Kelvin
 Total                  128.121             61.998            132.139
 Electronic               0.000              0.000              0.000
 Translational            1.038              2.981             43.148
 Rotational               1.038              2.981             34.025
 Vibrational            126.046             56.037             54.966
 Vibration     1          0.693              1.985              6.143
 Vibration     2          0.694              1.982              5.451
 Vibration     3          0.694              1.981              5.229
 Vibration     4          0.698              1.971              4.283
 Vibration     5          0.700              1.965              3.970
 Vibration     6          0.719              1.911              2.779
 Vibration     7          0.720              1.907              2.724
 Vibration     8          0.726              1.890              2.541
 Vibration     9          0.745              1.838              2.123
 Vibration    10          0.766              1.782              1.817
 Vibration    11          0.778              1.751              1.682
 Vibration    12          0.822              1.641              1.325
 Vibration    13          0.840              1.597              1.216
 Vibration    14          0.853              1.566              1.145
 Vibration    15          0.869              1.528              1.068
 Vibration    16          0.874              1.516              1.046
 Vibration    17          0.925              1.403              0.856
 Vibration    18          0.949              1.352              0.784
 Vibration    19          0.981              1.285              0.699
 Vibration    20          1.000              1.248              0.656
 Vibration    21          1.043              1.167              0.570
 Vibration    22          1.085              1.089              0.498
 Vibration    23          1.106              1.053              0.467
 Vibration    24          1.115              1.038              0.455
 Vibration    25          1.126              1.020              0.440

 Optimization completed.
    -- Stationary point found.
 Normal termination of Gaussian 09 at Sat Apr 30 08:33:30 2005.
