 Gaussian 09, Revision B.01,
 Gaussian 09:  EM64L-G09RevB.01 12-Aug-2010

 ----------------------------------------------------------------------
 #p opt=(verytight,maxcycles=1000) int=(grid=ultrafine) CPHF=(grid=fine
 ) freq rb3lyp/aug-cc-pvdz
 ----------------------------------------------------------------------

 -------------------------
 NO2-Ph-RB3LYP-aug-cc-pVDZ
 -------------------------
 Symbolic Z-matrix:
 Charge =  0 Multiplicity = 1

 SCF Done:  E(RB3LYP) =  -436.809731152     A.U. after   13 cycles
 SCF Done:  E(RB3LYP) =  -436.813162861     A.U. after   11 cycles
 SCF Done:  E(RB3LYP) =  -436.813470455     A.U. after   14 cycles
 SCF Done:  E(RB3LYP) =  -436.813460772     A.U. after   15 cycles
 SCF Done:  E(RB3LYP) =  -436.813377783     A.U. after   14 cycles
 SCF Done:  E(RB3LYP) =  -436.813488601     A.U. after   12 cycles
 SCF Done:  E(RB3LYP) =  -436.813498630     A.U. after   15 cycles
 SCF Done:  E(RB3LYP) =  -436.813498716     A.U. after   15 cycles
 SCF Done:  E(RB3LYP) =  -436.813498728     A.U. after   15 cycles
 SCF Done:  E(RB3LYP) =  -436.813498729     A.U. after   15 cycles
 SCF Done:  E(RB3LYP) =  -436.813498728     A.U. after   16 cycles
 Optimization completed.
    -- Stationary point found.
 Normal termination of Gaussian 09 at Fri Apr 21 06:06:37 2017.

 ----------------------------------------------------------------------
 #P Geom=AllCheck Guess=TCheck SCRF=Check GenChk RB3LYP/Aug-CC-pVDZ Fre
 q
 ----------------------------------------------------------------------

 NO2-Ph-RB3LYP-aug-cc-pVDZ
 -------------------------
 Redundant internal coordinates taken from checkpoint file:
 /home/ubuntu/g09/Gau-6569.chk
 Charge =  0 Multiplicity = 1

                         Standard orientation:
 ---------------------------------------------------------------------
 Center     Atomic      Atomic             Coordinates (Angstroms)
 Number     Number       Type             X           Y           Z
 ---------------------------------------------------------------------
      1          6           0        2.521224    0.000000    0.000000
      2          6           0        1.824619    1.214044    0.000001
      3          6           0        0.428745    1.222864    0.000001
      4          6           0       -0.244851    0.000000    0.000000
      5          6           0        0.428745   -1.222863   -0.000001
      6          6           0        1.824618   -1.214044   -0.000001
      7          1           0        3.611536    0.000000    0.000000
      8          1           0        2.369246    2.157981    0.000002
      9          1           0       -0.138733    2.150048    0.000001
     10          1           0       -0.138734   -2.150047   -0.000001
     11          1           0        2.369245   -2.157982   -0.000002
     12          7           0       -1.722343    0.000000    0.000000
     13          8           0       -2.294673    1.087270   -0.000003
     14          8           0       -2.294672   -1.087270    0.000003
 ---------------------------------------------------------------------

 SCF Done:  E(RB3LYP) =  -436.813498728     A.U. after    2 cycles

 The electronic state is 1-A.
 Alpha  occ. eigenvalues --  -19.19063 -19.19062 -14.57827 -10.26344 -10.22876
 Alpha  occ. eigenvalues --  -10.22873 -10.22774 -10.22486 -10.22480  -1.24054
 Alpha  occ. eigenvalues --   -1.06771  -0.90260  -0.81907  -0.78538  -0.71428
 Alpha  occ. eigenvalues --   -0.64375  -0.60970  -0.57509  -0.54491  -0.52737
 Alpha  occ. eigenvalues --   -0.52121  -0.48349  -0.47588  -0.45791  -0.40316
 Alpha  occ. eigenvalues --   -0.39947  -0.38147  -0.32632  -0.32323  -0.30603
 Alpha  occ. eigenvalues --   -0.29488  -0.29026
 Alpha virt. eigenvalues --   -0.10638  -0.04661  -0.02007  -0.01828   0.00061
 Alpha virt. eigenvalues --    0.00667   0.02707   0.02889   0.04214   0.04343
 Alpha virt. eigenvalues --    0.07020   0.07211   0.07560   0.08223   0.08529

 Mulliken atomic charges:
              1
     1  C    0.636002
     2  C    0.616686
     3  C    0.756952
     4  C    1.097688
     5  C    0.756951
     6  C    0.616686
     7  H   -0.735865
     8  H   -0.731516
     9  H   -0.794082
    10  H   -0.794082
    11  H   -0.731516
    12  N    0.660633
    13  O   -0.677268
    14  O   -0.677268
 Sum of Mulliken atomic charges =   0.00000

 Dipole moment (field-independent basis, Debye):
    X=              4.7722    Y=              0.0000    Z=              0.0000  Tot=              4.7722
 Quadrupole moment (field-independent basis, Debye-Ang):
   XX=            -55.9766   YY=            -48.2085   ZZ=            -53.2679
   XY=              0.0000   XZ=              0.0000   YZ=              0.0000

  Exact polarizability: 118.729   0.000  98.257   0.000   0.000  49.717
 Approx polarizability: 183.737   0.000 188.048   0.000   0.000  76.923

                     1                      2                      3
                     A                      A                      A
 Frequencies --    55.8408               170.3083               253.9523
 Red. masses --     7.9853                 5.0865                 6.3968
 Frc consts  --     0.0147                 0.0869                 0.2431
 IR Inten    --     0.0000                 0.9332                 0.8212

                     4                      5                      6
                     A                      A                      A
 Frequencies --   394.5395               418.2894               447.7682
 Red. masses --     9.2824                 2.8638                 3.5671
 Frc consts  --     0.8513                 0.2952                 0.4214
 IR Inten    --     1.1193                 0.0000                 0.6838

                     7                      8                      9
                     A                      A                      A
 Frequencies --   523.2380               621.0973               691.0811
 Red. masses --     8.1972                 6.4090                 7.2188
 Frc consts  --     1.3223                 1.4567                 2.0313
 IR Inten    --     1.3223                 0.0520                 9.1842

                    10                     11                     12
                     A                      A                      A
 Frequencies --   695.4092               716.9080               810.9349
 Red. masses --     2.4822                 1.9457                 2.7397
 Frc consts  --     0.7073                 0.5892                 1.0615
 IR Inten    --    14.2157                73.2277                 7.7868

                    13                     14                     15
                     A                      A                      A
 Frequencies --   850.1078               860.6058               957.6631
 Red. masses --     1.2458                10.3977                 1.4301
 Frc consts  --     0.5305                 4.5373                 0.7728
 IR Inten    --     0.0000                31.5796                 3.0692

                    16                     17                     18
                     A                      A                      A
 Frequencies --   995.4909              1012.9168              1016.8355
 Red. masses --     1.3768                 6.2305                 1.3521
 Frc consts  --     0.8039                 3.7663                 0.8237
 IR Inten    --     0.0000                 0.2402                 0.0451

                    19                     20                     21
                     A                      A                      A
 Frequencies --  1038.9953              1093.2937              1117.4437
 Red. masses --     2.1124                 1.4206                 3.0906
 Frc consts  --     1.3435                 1.0004                 2.2738
 IR Inten    --     6.8611                 8.6218                34.1369

                    22                     23                     24
                     A                      A                      A
 Frequencies --  1174.3710              1186.4217              1319.2739
 Red. masses --     1.0979                 1.2397                 1.3356
 Frc consts  --     0.8922                 1.0281                 1.3696
 IR Inten    --     0.5315                 1.9683                 0.0383

                    25                     26                     27
                     A                      A                      A
 Frequencies --  1367.3593              1383.0837              1473.4966
 Red. masses --     7.7230                14.3172                 2.4293
 Frc consts  --     8.5075                16.1364                 3.1076
 IR Inten    --    13.8137               282.0902                 0.0618

                    28                     29                     30
                     A                      A                      A
 Frequencies --  1494.8183              1591.4793              1629.6780
 Red. masses --     2.2124                10.8791                 5.9059
 Frc consts  --     2.9127                16.2347                 9.2414
 IR Inten    --     8.6617               228.5775                 3.6449

                    31                     32                     33
                     A                      A                      A
 Frequencies --  1654.0963              3182.9972              3195.1730
 Red. masses --     7.6909                 1.0865                 1.0910
 Frc consts  --    12.3980                 6.4857                 6.5625
 IR Inten    --    39.0827                 0.6251                 8.8542

                    34                     35                     36
                     A                      A                      A
 Frequencies --  3204.0883              3232.6977              3233.0824
 Red. masses --     1.0966                 1.0931                 1.0942
 Frc consts  --     6.6332                 6.7306                 6.7390
 IR Inten    --     7.7128                 0.5620                 5.1361

 - Thermochemistry -
 -------------------
 Temperature   298.150 Kelvin.  Pressure   1.00000 Atm.
 Atom     1 has atomic number  6 and mass  12.00000

 Molecular mass:   123.03203 amu.
 Principal axes and moments of inertia in atomic units:
                           1         2         3
     Eigenvalues --   456.326691411.548601867.87529
           X            1.00000   0.00000   0.00000
           Y            0.00000   1.00000   0.00000
           Z            0.00000   0.00000   1.00000
 This molecule is an asymmetric top.
 Rotational symmetry number  1.
 Warning -- assumption of classical behavior for rotation
           may cause significant error
 Rotational temperatures (Kelvin)      0.18981     0.06136     0.04637
 Rotational constants (GHZ):           3.95493     1.27855     0.96620
 Zero-point vibrational energy     269547.6 (Joules/Mol)
                                   64.42342 (Kcal/Mol)
 Warning -- explicit consideration of   7 degrees of freedom as
           vibrations may cause significant error
 Vibrational temperatures:     80.34   245.04   365.38   567.65   601.82
          (Kelvin)            644.24   752.82   893.62   994.31  1000.54
                             1031.47  1166.75  1223.11  1238.22  1377.86
                             1432.29  1457.36  1463.00  1494.88  1573.00
                             1607.75  1689.66  1706.99  1898.14  1967.32
                             1989.95  2120.03  2150.71  2289.78  2344.74
                             2379.87  4579.62  4597.14  4609.96  4651.13
                             4651.68

 Zero-point correction=                           0.102665 (Hartree/Particle)
 Thermal correction to Energy=                    0.109492
 Thermal correction to Enthalpy=                  0.110436
 Thermal correction to Gibbs Free Energy=         0.070725
 Sum of electronic and zero-point Energies=           -436.710833
 Sum of electronic and thermal Energies=              -436.704007
 Sum of electronic and thermal Enthalpies=            -436.703063
 Sum of electronic and thermal Free Energies=         -436.742774

                     E (Thermal)             CV                S
                      KCal/Mol        Cal/Mol-Kelvin    Cal/Mol-Kelvin
 Total                   68.707             25.805             83.580
 Electronic               0.000              0.000              0.000
 Translational            0.889              2.981             40.336
 Rotational               0.889              2.981             28.577
 Vibrational             66.930             19.844             14.667
 Vibration     1          0.596              1.975              4.599
 Vibration     2          0.625              1.879              2.432
 Vibration     3          0.665              1.756              1.703
 Vibration     4          0.762              1.482              0.983
 Vibration     5          0.781              1.431              0.898
 Vibration     6          0.807              1.366              0.803
 Vibration     7          0.878              1.199              0.603

 Optimization completed.
    -- Stationary point found.
 Normal termination of Gaussian 09 at Fri Apr 21 06:19:51 2017.
