 Gaussian 09, Revision B.01,
 Gaussian 09:  EM64L-G09RevB.01 12-Aug-2010

 ----------------------------------------------------------------------
 #p Temperature=358.15 int=(grid=ultrafine) CPHF=(grid=fine) freq rb3ly
 p/aug-cc-pvdz
 ----------------------------------------------------------------------

 ------------------------------------
 o-NO2-Ph-N2-OTf-RB3LYP-aug-cc-pVDZ--
 ------------------------------------
 Symbolic Z-matrix:
 Charge =  0 Multiplicity = 1

                         Standard orientation:
 ---------------------------------------------------------------------
 Center     Atomic      Atomic             Coordinates (Angstroms)
 Number     Number       Type             X           Y           Z
 ---------------------------------------------------------------------
      1          6           0        1.359381    2.342030   -0.651280
      2          6           0        0.883620    1.027140   -0.687140
      3          6           0        1.773130    0.006740   -0.332320
      4          6           0        3.108280    0.267950    0.038220
      5          6           0        3.555190    1.579459    0.070060
      6          6           0        2.675291    2.615980   -0.275200
      7          1           0        0.680701    3.151000   -0.917960
      8          1           0       -0.140980    0.762380   -0.986940
      9          7           0        1.262970   -1.291710   -0.376230
     10          7           0        0.571860   -2.166490   -0.389150
     11         16           0       -2.349150   -0.823390   -0.307910
     12          6           0       -3.178480    0.673191    0.515950
     13          8           0       -1.698240   -0.221440   -1.534370
     14          8           0       -3.445100   -1.791549   -0.543830
     15          8           0       -1.312690   -1.218120    0.734820
     16          9           0       -2.258500    1.645060    0.747240
     17          9           0       -4.129930    1.184261   -0.280420
     18          9           0       -3.731580    0.334161    1.688790
     19          1           0        3.032021    3.645090   -0.246920
     20          1           0        4.583170    1.774659    0.365630
     21          7           0        4.032070   -0.822961    0.399950
     22          8           0        3.576790   -1.964741    0.372290
     23          8           0        5.177340   -0.521281    0.696150
 ---------------------------------------------------------------------

 SCF Done:  E(RB3LYP) =  -1507.14947742     A.U. after   26 cycles

 The electronic state is 1-A.
 Alpha  occ. eigenvalues --  -89.11132 -24.74873 -24.74529 -24.74526 -19.25411
 Alpha  occ. eigenvalues --  -19.25378 -19.13388 -19.12929 -19.12337 -14.64424
 Alpha  occ. eigenvalues --  -14.57688 -14.55770 -10.44100 -10.36564 -10.34435
 Alpha  occ. eigenvalues --  -10.29373 -10.29143 -10.28890 -10.28480  -8.13743
 Alpha  occ. eigenvalues --   -6.10089  -6.10060  -6.10036  -1.32089  -1.30644
 Alpha  occ. eigenvalues --   -1.23830  -1.23603  -1.23560  -1.13475  -1.10520
 Alpha  occ. eigenvalues --   -0.99701  -0.97838  -0.97226  -0.91482  -0.88708
 Alpha  occ. eigenvalues --   -0.80689  -0.76349  -0.72968  -0.70273  -0.66624
 Alpha  occ. eigenvalues --   -0.63982  -0.62351  -0.61245  -0.59899  -0.59750
 Alpha  occ. eigenvalues --   -0.59552  -0.58859  -0.58428  -0.56858  -0.55186
 Alpha  occ. eigenvalues --   -0.54734  -0.53106  -0.52146  -0.47704  -0.47514
 Alpha  occ. eigenvalues --   -0.46893  -0.46662  -0.46112  -0.45212  -0.44850
 Alpha  occ. eigenvalues --   -0.44336  -0.43554  -0.43413  -0.41648  -0.38704
 Alpha  occ. eigenvalues --   -0.38506  -0.37021  -0.36552  -0.35710  -0.33412
 Alpha  occ. eigenvalues --   -0.32736  -0.30201  -0.30051  -0.29011  -0.26294
 Alpha virt. eigenvalues --   -0.18575  -0.14534  -0.14206  -0.08486  -0.06590
 Alpha virt. eigenvalues --   -0.04225  -0.02106  -0.01195   0.00246   0.00871
 Alpha virt. eigenvalues --    0.01467   0.02313   0.03645   0.04010   0.04467

 Mulliken atomic charges:
              1
     1  C    0.387173
     2  C    1.730189
     3  C    0.455367
     4  C    0.969243
     5  C    1.059543
     6  C    0.261358
     7  H   -0.831374
     8  H   -0.888066
     9  N    0.409154
    10  N   -0.591331
    11  S    2.340138
    12  C    1.068369
    13  O   -0.979591
    14  O   -0.899899
    15  O   -0.949746
    16  F   -0.509419
    17  F   -0.422118
    18  F   -0.422067
    19  H   -0.710487
    20  H   -0.838835
    21  N    0.655663
    22  O   -0.650774
    23  O   -0.642490
 Sum of Mulliken atomic charges =   0.00000

 Dipole moment (field-independent basis, Debye):
    X=             10.7277    Y=              6.5201    Z=             -0.7084  Tot=             12.5737
 Quadrupole moment (field-independent basis, Debye-Ang):
   XX=           -129.6564   YY=           -105.2470   ZZ=           -117.3159
   XY=              5.3370   XZ=             -6.8196   YZ=             -0.4457

  Exact polarizability: 222.502  13.877 176.375  10.460  -4.262 101.631
 Approx polarizability: 326.944  38.728 325.201  22.889  -7.964 170.885

                     1                      2                      3
                     A                      A                      A
 Frequencies --    16.4268                23.1606                30.7458
 Red. masses --    12.4359                10.6557                14.7956
 Frc consts  --     0.0020                 0.0034                 0.0082
 IR Inten    --     0.2877                 1.4695                 0.5806

                     4                      5                      6
                     A                      A                      A
 Frequencies --    42.6847                49.4306                59.3696
 Red. masses --    12.9830                11.9038                11.8311
 Frc consts  --     0.0139                 0.0171                 0.0246
 IR Inten    --     3.6794                 2.6059                 1.2668

                     7                      8                      9
                     A                      A                      A
 Frequencies --   112.9012               119.6883               132.8938
 Red. masses --    14.0614                13.1330                 5.1955
 Frc consts  --     0.1056                 0.1108                 0.0541
 IR Inten    --    24.7136                 3.4468                 2.9470

                    10                     11                     12
                     A                      A                      A
 Frequencies --   179.5636               184.5320               194.2862
 Red. masses --    13.8282                16.1862                 6.6325
 Frc consts  --     0.2627                 0.3247                 0.1475
 IR Inten    --    41.8467                13.9006                 0.4174

                    13                     14                     15
                     A                      A                      A
 Frequencies --   203.3508               256.3553               278.0639
 Red. masses --    16.5116                 7.7105                17.8367
 Frc consts  --     0.4023                 0.2986                 0.8126
 IR Inten    --    37.9353                 1.3600                 5.4352

                    16                     17                     18
                     A                      A                      A
 Frequencies --   314.8665               329.3172               367.9827
 Red. masses --    17.3355                17.2257                10.8101
 Frc consts  --     1.0126                 1.1007                 0.8625
 IR Inten    --     0.3357                21.0066                 2.8777

                    19                     20                     21
                     A                      A                      A
 Frequencies --   390.3691               431.2440               443.6893
 Red. masses --     5.4389                11.7266                 4.2861
 Frc consts  --     0.4883                 1.2849                 0.4971
 IR Inten    --     9.7782                 1.3020                 0.1925

                    22                     23                     24
                     A                      A                      A
 Frequencies --   469.3639               482.1588               524.6004
 Red. masses --    17.6721                17.1636                 8.3796
 Frc consts  --     2.2938                 2.3509                 1.3587
 IR Inten    --    14.7909                45.9397                 5.1975

                    25                     26                     27
                     A                      A                      A
 Frequencies --   537.9527               540.8964               548.6531
 Red. masses --    17.2869                17.3273                 5.3571
 Frc consts  --     2.9475                 2.9868                 0.9501
 IR Inten    --     1.1352                 9.0797                13.5961

                    28                     29                     30
                     A                      A                      A
 Frequencies --   586.2030               591.1926               667.2420
 Red. masses --    18.2240                 7.6056                 6.9397
 Frc consts  --     3.6897                 1.5662                 1.8204
 IR Inten    --   137.1241                10.6550                11.2979

                    31                     32                     33
                     A                      A                      A
 Frequencies --   687.6475               728.9870               758.3911
 Red. masses --     4.7831                17.9930                 2.4529
 Frc consts  --     1.3326                 5.6337                 0.8312
 IR Inten    --     6.2533                 1.6191                37.1494

                    34                     35                     36
                     A                      A                      A
 Frequencies --   782.1761               815.3989               865.0668
 Red. masses --     6.8602                 1.7405                10.3263
 Frc consts  --     2.4728                 0.6818                 4.5530
 IR Inten    --     8.1324                22.0039                35.1763

                    37                     38                     39
                     A                      A                      A
 Frequencies --   924.1185               943.8011              1029.4591
 Red. masses --    15.1090                 1.3935                 1.4243
 Frc consts  --     7.6023                 0.7313                 0.8893
 IR Inten    --   244.3502                 4.4027                 2.1549

                    40                     41                     42
                     A                      A                      A
 Frequencies --  1044.2357              1061.5497              1070.3111
 Red. masses --     2.2426                 1.7681                 2.9074
 Frc consts  --     1.4408                 1.1739                 1.9624
 IR Inten    --    19.2196                 9.8792                31.0779

                    43                     44                     45
                     A                      A                      A
 Frequencies --  1086.8156              1116.9084              1159.7502
 Red. masses --     7.7279                12.4564                 9.9553
 Frc consts  --     5.3781                 9.1554                 7.8892
 IR Inten    --   114.8388               124.9840               151.6758

                    46                     47                     48
                     A                      A                      A
 Frequencies --  1160.9344              1175.0464              1180.8688
 Red. masses --     2.2845                12.8981                 2.2480
 Frc consts  --     1.8141                10.4927                 1.8469
 IR Inten    --     7.4431               279.4240                38.3155

                    49                     50                     51
                     A                      A                      A
 Frequencies --  1189.3508              1221.4622              1300.8250
 Red. masses --     1.1722                17.2734                 1.6291
 Frc consts  --     0.9770                15.1841                 1.6242
 IR Inten    --     7.4642               573.2590                16.7409

                    52                     53                     54
                     A                      A                      A
 Frequencies --  1376.3939              1383.7658              1457.6563
 Red. masses --     9.9851                 6.8428                 2.2396
 Frc consts  --    11.1453                 7.7198                 2.8036
 IR Inten    --   222.4388                22.6234                 3.8108

                    55                     56                     57
                     A                      A                      A
 Frequencies --  1503.8736              1598.1357              1608.9541
 Red. masses --     2.2620                 5.6352                 9.9841
 Frc consts  --     3.0141                 8.4798                15.2281
 IR Inten    --     7.0159                45.0078               200.7261

                    58                     59                     60
                     A                      A                      A
 Frequencies --  1644.7149              2323.9150              3031.1490
 Red. masses --     8.6555                13.9714                 1.1044
 Frc consts  --    13.7951                44.4561                 5.9785
 IR Inten    --    63.3119               145.7329               419.3837

                    61                     62                     63
                     A                      A                      A
 Frequencies --  3202.2529              3215.8609              3233.7136
 Red. masses --     1.0894                 1.0957                 1.0940
 Frc consts  --     6.5821                 6.6764                 6.7401
 IR Inten    --     0.3935                 1.6164                 9.7257

 - Thermochemistry -
 -------------------
 Temperature   358.150 Kelvin.  Pressure   1.00000 Atm.
 Atom     1 has atomic number  6 and mass  12.00000

 Molecular mass:   298.98238 amu.
 Principal axes and moments of inertia in atomic units:
                           1         2         3
     Eigenvalues --  2573.416399793.78025**********
           X            0.99988   0.01554   0.00274
           Y           -0.01550   0.99980  -0.01292
           Z           -0.00294   0.01288   0.99991
 This molecule is an asymmetric top.
 Rotational symmetry number  1.
 Warning -- assumption of classical behavior for rotation
           may cause significant error
 Rotational temperatures (Kelvin)      0.03366     0.00884     0.00769
 Rotational constants (GHZ):           0.70130     0.18427     0.16026
 Zero-point vibrational energy     334910.6 (Joules/Mol)
                                   80.04555 (Kcal/Mol)
 Warning -- explicit consideration of  32 degrees of freedom as
           vibrations may cause significant error
 Vibrational temperatures:     23.63    33.32    44.24    61.41    71.12
          (Kelvin)             85.42   162.44   172.20   191.20   258.35
                              265.50   279.53   292.58   368.84   400.07
                              453.02   473.81   529.44   561.65   620.46
                              638.37   675.31   693.72   754.78   773.99
                              778.23   789.39   843.41   850.59   960.01
                              989.37  1048.85  1091.15  1125.38  1173.18
                             1244.64  1329.60  1357.92  1481.16  1502.42
                             1527.33  1539.94  1563.68  1606.98  1668.62
                             1670.32  1690.63  1699.00  1711.21  1757.41
                             1871.59  1980.32  1990.93  2097.24  2163.74
                             2299.36  2314.92  2366.37  3343.59  4361.14
                             4607.32  4626.90  4652.59

 Zero-point correction=                           0.127561 (Hartree/Particle)
 Thermal correction to Energy=                    0.151965
 Thermal correction to Enthalpy=                  0.153099
 Thermal correction to Gibbs Free Energy=         0.062691
 Sum of electronic and zero-point Energies=          -1507.021917
 Sum of electronic and thermal Energies=             -1506.997513
 Sum of electronic and thermal Enthalpies=           -1506.996379
 Sum of electronic and thermal Free Energies=        -1507.086786

                     E (Thermal)             CV                S
                      KCal/Mol        Cal/Mol-Kelvin    Cal/Mol-Kelvin
 Total                   95.359             70.878            158.402
 Electronic               0.000              0.000              0.000
 Translational            1.068              2.981             43.894
 Rotational               1.068              2.981             34.552
 Vibrational             93.224             64.916             79.956
 Vibration     1          0.712              1.986              7.389
 Vibration     2          0.712              1.986              6.707
 Vibration     3          0.713              1.985              6.145
 Vibration     4          0.713              1.982              5.494
 Vibration     5          0.714              1.981              5.203
 Vibration     6          0.715              1.978              4.840
 Vibration     7          0.724              1.953              3.575
 Vibration     8          0.725              1.949              3.461
 Vibration     9          0.729              1.941              3.258
 Vibration    10          0.742              1.903              2.679
 Vibration    11          0.744              1.899              2.627
 Vibration    12          0.747              1.889              2.529
 Vibration    13          0.751              1.880              2.443
 Vibration    14          0.774              1.821              2.014
 Vibration    15          0.784              1.793              1.867
 Vibration    16          0.804              1.742              1.648
 Vibration    17          0.813              1.721              1.570
 Vibration    18          0.837              1.662              1.382
 Vibration    19          0.852              1.626              1.285
 Vibration    20          0.881              1.557              1.126
 Vibration    21          0.891              1.535              1.082
 Vibration    22          0.911              1.490              0.997
 Vibration    23          0.921              1.467              0.958
 Vibration    24          0.957              1.390              0.837
 Vibration    25          0.969              1.366              0.802
 Vibration    26          0.972              1.360              0.795
 Vibration    27          0.979              1.346              0.776
 Vibration    28          1.014              1.277              0.689
 Vibration    29          1.019              1.267              0.678
 Vibration    30          1.094              1.128              0.533
 Vibration    31          1.116              1.091              0.500
 Vibration    32          1.160              1.017              0.438

 Optimization completed.
    -- Stationary point found.
 Normal termination of Gaussian 09 at Sun Jun  5 01:39:26 2005.
