 Gaussian 09, Revision B.01,
 Gaussian 09:  EM64L-G09RevB.01 12-Aug-2010

 ----------------------------------------------------------------------
 #p Temperature=353.15 int=(grid=ultrafine) CPHF=(grid=fine) freq rb3ly
 p/aug-cc-pvdz
 ----------------------------------------------------------------------

 ----------------------------------
 p-CH3O-Ph-OTf-RB3LYP-aug-cc-pVDZ--
 ----------------------------------
 Symbolic Z-matrix:
 Charge =  0 Multiplicity = 1

                         Standard orientation:
 ---------------------------------------------------------------------
 Center     Atomic      Atomic             Coordinates (Angstroms)
 Number     Number       Type             X           Y           Z
 ---------------------------------------------------------------------
      1          6           0        2.851351   -0.985151   -0.236780
      2          6           0        1.463321   -1.041951   -0.405750
      3          6           0        0.729311    0.137809   -0.430490
      4          6           0        1.343930    1.383869   -0.286340
      5          6           0        2.723110    1.441099   -0.119360
      6          6           0        3.484071    0.258879   -0.092580
      7          1           0        3.418001   -1.912351   -0.220900
      8          1           0        0.956551   -1.998521   -0.519040
      9          1           0        0.743500    2.291469   -0.307930
     10          1           0        3.233660    2.396339   -0.007130
     11          8           0       -0.662309    0.081529   -0.681780
     12         16           0       -1.651329   -0.049952    0.660540
     13          8           0       -1.622909    1.192548    1.452380
     14          8           0       -1.495029   -1.371802    1.293360
     15          6           0       -3.250439   -0.066082   -0.372890
     16          9           0       -3.359209    1.066618   -1.067400
     17          9           0       -3.250609   -1.110522   -1.201540
     18          9           0       -4.271589   -0.169812    0.483050
     19          8           0        4.826491    0.426410    0.075030
     20          6           0        5.653051   -0.733860    0.118960
     21          1           0        5.596181   -1.298780   -0.824000
     22          1           0        6.673061   -0.365400    0.262450
     23          1           0        5.376801   -1.387240    0.960440
 ---------------------------------------------------------------------

 SCF Done:  E(RB3LYP) =  -1307.70664741     A.U. after   15 cycles

 The electronic state is 1-A.
 Alpha  occ. eigenvalues --  -89.16592 -24.78965 -24.78960 -24.78937 -19.23303
 Alpha  occ. eigenvalues --  -19.19832 -19.19060 -19.19055 -10.49632 -10.27142
 Alpha  occ. eigenvalues --  -10.26857 -10.25658 -10.21800 -10.21681 -10.21290
 Alpha  occ. eigenvalues --  -10.20948  -8.19473  -6.15887  -6.15722  -6.15668
 Alpha  occ. eigenvalues --   -1.36883  -1.28281  -1.28220  -1.16792  -1.08972
 Alpha  occ. eigenvalues --   -1.07775  -1.04556  -0.87986  -0.79971  -0.78016
 Alpha  occ. eigenvalues --   -0.76803  -0.72590  -0.69436  -0.64768  -0.64412
 Alpha  occ. eigenvalues --   -0.64350  -0.62875  -0.60042  -0.56274  -0.54965
 Alpha  occ. eigenvalues --   -0.52396  -0.51618  -0.51459  -0.50706  -0.49778
 Alpha  occ. eigenvalues --   -0.48758  -0.48163  -0.47881  -0.47445  -0.46790
 Alpha  occ. eigenvalues --   -0.45771  -0.45248  -0.44312  -0.42209  -0.40547
 Alpha  occ. eigenvalues --   -0.40075  -0.38423  -0.37782  -0.35883  -0.35269
 Alpha  occ. eigenvalues --   -0.35162  -0.33946  -0.32741  -0.28128  -0.24558
 Alpha virt. eigenvalues --   -0.04242  -0.03786  -0.01895  -0.01344  -0.00741
 Alpha virt. eigenvalues --    0.00185   0.00323   0.01251   0.01749   0.01781
 Alpha virt. eigenvalues --    0.02551   0.02829   0.03681   0.04096   0.05464

 Mulliken atomic charges:
              1
     1  C    1.564507
     2  C    0.686745
     3  C   -0.223889
     4  C    0.990926
     5  C    1.469092
     6  C    0.238546
     7  H   -1.201849
     8  H   -0.839331
     9  H   -0.846692
    10  H   -0.904383
    11  O   -0.944959
    12  S    2.234617
    13  O   -0.868970
    14  O   -0.871872
    15  C    1.123670
    16  F   -0.425166
    17  F   -0.426651
    18  F   -0.394264
    19  O   -0.647070
    20  C    1.231262
    21  H   -0.196124
    22  H   -0.553034
    23  H   -0.195111
 Sum of Mulliken atomic charges =   0.00000

 Dipole moment (field-independent basis, Debye):
    X=              3.3761    Y=             -0.9514    Z=             -1.7355  Tot=              3.9135
 Quadrupole moment (field-independent basis, Debye-Ang):
   XX=            -81.5255   YY=            -95.5903   ZZ=           -103.7673
   XY=             -6.6562   XZ=              3.2855   YZ=              0.2142

  Exact polarizability: 197.288  -3.856 130.651   1.930   1.258  97.291
 Approx polarizability: 253.069  -1.709 233.173   6.909   3.985 157.802

                     1                      2                      3
                     A                      A                      A
 Frequencies --    12.3680                31.8550                44.4873
 Red. masses --     6.8993                 6.3372                 7.3305
 Frc consts  --     0.0006                 0.0038                 0.0085
 IR Inten    --     0.6176                 0.3875                 0.6174

                     4                      5                      6
                     A                      A                      A
 Frequencies --    53.5349                91.8424               122.6897
 Red. masses --    10.5636                 4.3171                 7.5225
 Frc consts  --     0.0178                 0.0215                 0.0667
 IR Inten    --     0.1080                 1.3571                 1.4948

                     7                      8                      9
                     A                      A                      A
 Frequencies --   168.0070               169.8191               213.6192
 Red. masses --     5.2771                12.3801                 4.9050
 Frc consts  --     0.0878                 0.2104                 0.1319
 IR Inten    --     3.6346                 2.0767                 0.5755

                    10                     11                     12
                     A                      A                      A
 Frequencies --   244.9738               250.0798               282.7246
 Red. masses --     8.7543                 1.2678                 6.2244
 Frc consts  --     0.3095                 0.0467                 0.2931
 IR Inten    --     4.5694                 1.3402                 0.8634

                    13                     14                     15
                     A                      A                      A
 Frequencies --   291.3189               343.0962               355.8801
 Red. masses --    13.8570                 6.2484                 8.4178
 Frc consts  --     0.6929                 0.4334                 0.6281
 IR Inten    --     1.0320                 1.0557                 0.4889

                    16                     17                     18
                     A                      A                      A
 Frequencies --   426.9711               433.3634               461.7124
 Red. masses --     5.7189                 3.5132                10.5296
 Frc consts  --     0.6143                 0.3887                 1.3225
 IR Inten    --     6.4493                 3.0516                21.6208

                    19                     20                     21
                     A                      A                      A
 Frequencies --   463.0481               514.2306               525.8713
 Red. masses --     9.3645                 5.4279                 3.3543
 Frc consts  --     1.1830                 0.8457                 0.5465
 IR Inten    --     9.6258                27.5052                52.5499

                    22                     23                     24
                     A                      A                      A
 Frequencies --   538.5534               540.8231               611.1984
 Red. masses --    16.9408                 8.6970                 7.0283
 Frc consts  --     2.8949                 1.4988                 1.5469
 IR Inten    --     1.0409                15.8771                86.0697

                    25                     26                     27
                     A                      A                      A
 Frequencies --   643.9698               658.5607               728.6436
 Red. masses --     7.0312                 7.8462                 3.9377
 Frc consts  --     1.7179                 2.0049                 1.2317
 IR Inten    --     4.5286                66.5198                 4.9244

                    28                     29                     30
                     A                      A                      A
 Frequencies --   741.7597               774.4970               805.8154
 Red. masses --    11.6206                 7.7533                 1.2580
 Frc consts  --     3.7671                 2.7401                 0.4813
 IR Inten    --    42.8844               182.6949                 2.6000

                    31                     32                     33
                     A                      A                      A
 Frequencies --   846.9050               848.9046               940.4780
 Red. masses --     3.3815                 2.4835                 1.3728
 Frc consts  --     1.4290                 1.0545                 0.7154
 IR Inten    --    80.9400                51.1289                 0.0886

                    34                     35                     36
                     A                      A                      A
 Frequencies --   966.3308              1015.7007              1057.1122
 Red. masses --     1.3502                 2.7314                 6.7360
 Frc consts  --     0.7428                 1.6602                 4.4350
 IR Inten    --     0.3569                 7.7271                86.2030

                    37                     38                     39
                     A                      A                      A
 Frequencies --  1063.5050              1119.4474              1145.5802
 Red. masses --    15.1185                 1.2442                 4.2901
 Frc consts  --    10.0749                 0.9187                 3.3171
 IR Inten    --   186.7718                15.0974               257.8052

                    40                     41                     42
                     A                      A                      A
 Frequencies --  1157.9957              1167.8030              1193.4376
 Red. masses --     1.2747                 1.7318                 2.6259
 Frc consts  --     1.0071                 1.3915                 2.2036
 IR Inten    --     0.9198                63.8198                36.2028

                    43                     44                     45
                     A                      A                      A
 Frequencies --  1194.3182              1200.0820              1206.1009
 Red. masses --     1.4085                 8.2712                13.3058
 Frc consts  --     1.1837                 7.0184                11.4040
 IR Inten    --    10.5109               255.8192               152.9082

                    46                     47                     48
                     A                      A                      A
 Frequencies --  1278.5363              1292.9393              1308.1336
 Red. masses --     4.9958                11.6251                 1.3588
 Frc consts  --     4.8115                11.4500                 1.3699
 IR Inten    --   199.3513               207.5127                 7.5461

                    49                     50                     51
                     A                      A                      A
 Frequencies --  1355.0465              1444.2492              1450.2517
 Red. masses --     9.5179                 3.1351                 1.1969
 Frc consts  --    10.2967                 3.8529                 1.4832
 IR Inten    --    19.8623                 0.6401                17.4193

                    52                     53                     54
                     A                      A                      A
 Frequencies --  1473.2423              1479.2626              1523.4451
 Red. masses --     1.0452                 1.0768                 2.5544
 Frc consts  --     1.3366                 1.3883                 3.4929
 IR Inten    --     8.6942                27.9103               234.4159

                    55                     56                     57
                     A                      A                      A
 Frequencies --  1627.8656              1645.9389              3011.9836
 Red. masses --     7.1584                 6.4183                 1.0345
 Frc consts  --    11.1764                10.2447                 5.5295
 IR Inten    --    17.4698                38.5920                51.4900

                    58                     59                     60
                     A                      A                      A
 Frequencies --  3080.3008              3153.3930              3200.9411
 Red. masses --     1.1063                 1.0999                 1.0889
 Frc consts  --     6.1847                 6.4442                 6.5736
 IR Inten    --    30.8824                17.8274                 3.0343

                    61                     62                     63
                     A                      A                      A
 Frequencies --  3208.5234              3216.2578              3225.5269
 Red. masses --     1.0899                 1.0961                 1.0937
 Frc consts  --     6.6110                 6.6804                 6.7045
 IR Inten    --     2.6970                 0.3653                 2.6635

 - Thermochemistry -
 -------------------
 Temperature   353.150 Kelvin.  Pressure   1.00000 Atm.
 Atom     1 has atomic number  6 and mass  12.00000

 Molecular mass:   256.00172 amu.
 Principal axes and moments of inertia in atomic units:
                           1         2         3
     Eigenvalues --  1248.439678829.464899038.51641
           X            0.99997  -0.00803  -0.00210
           Y            0.00804   0.99996   0.00491
           Z            0.00206  -0.00493   0.99999
 This molecule is an asymmetric top.
 Rotational symmetry number  1.
 Warning -- assumption of classical behavior for rotation
           may cause significant error
 Rotational temperatures (Kelvin)      0.06938     0.00981     0.00958
 Rotational constants (GHZ):           1.44560     0.20440     0.19967
 Zero-point vibrational energy     392643.4 (Joules/Mol)
                                   93.84403 (Kcal/Mol)
 Warning -- explicit consideration of  27 degrees of freedom as
           vibrations may cause significant error
 Vibrational temperatures:     17.79    45.83    64.01    77.02   132.14
          (Kelvin)            176.52   241.72   244.33   307.35   352.46
                              359.81   406.78   419.14   493.64   512.03
                              614.32   623.51   664.30   666.22   739.86
                              756.61   774.86   778.12   879.38   926.53
                              947.52  1048.35  1067.23  1114.33  1159.39
                             1218.51  1221.38  1353.14  1390.33  1461.36
                             1520.95  1530.14  1610.63  1648.23  1666.10
                             1680.21  1717.09  1718.36  1726.65  1735.31
                             1839.53  1860.25  1882.11  1949.61  2077.95
                             2086.59  2119.66  2128.33  2191.90  2342.13
                             2368.14  4333.57  4431.86  4537.02  4605.43
                             4616.34  4627.47  4640.81

 Zero-point correction=                           0.149550 (Hartree/Particle)
 Thermal correction to Energy=                    0.170003
 Thermal correction to Enthalpy=                  0.171122
 Thermal correction to Gibbs Free Energy=         0.092157
 Sum of electronic and zero-point Energies=          -1307.557097
 Sum of electronic and thermal Energies=             -1307.536644
 Sum of electronic and thermal Enthalpies=           -1307.535526
 Sum of electronic and thermal Free Energies=        -1307.614490

                     E (Thermal)             CV                S
                      KCal/Mol        Cal/Mol-Kelvin    Cal/Mol-Kelvin
 Total                  106.679             62.660            140.311
 Electronic               0.000              0.000              0.000
 Translational            1.053              2.981             43.361
 Rotational               1.053              2.981             33.470
 Vibrational            104.573             56.698             63.480
 Vibration     1          0.702              1.987              7.925
 Vibration     2          0.703              1.984              6.046
 Vibration     3          0.704              1.982              5.384
 Vibration     4          0.705              1.979              5.017
 Vibration     5          0.710              1.964              3.952
 Vibration     6          0.716              1.946              3.386
 Vibration     7          0.729              1.911              2.779
 Vibration     8          0.730              1.910              2.758
 Vibration     9          0.746              1.866              2.325
 Vibration    10          0.759              1.830              2.072
 Vibration    11          0.761              1.824              2.034
 Vibration    12          0.778              1.781              1.813
 Vibration    13          0.782              1.769              1.759
 Vibration    14          0.812              1.693              1.476
 Vibration    15          0.821              1.673              1.414
 Vibration    16          0.870              1.554              1.120
 Vibration    17          0.875              1.542              1.097
 Vibration    18          0.897              1.492              1.001
 Vibration    19          0.899              1.490              0.997
 Vibration    20          0.941              1.396              0.845
 Vibration    21          0.952              1.374              0.814
 Vibration    22          0.963              1.351              0.782
 Vibration    23          0.965              1.346              0.776
 Vibration    24          1.032              1.215              0.619
 Vibration    25          1.065              1.154              0.557
 Vibration    26          1.080              1.127              0.532
 Vibration    27          1.154              1.000              0.424

 Normal termination of Gaussian 09 at Wed May 10 10:12:52 2017.
