 Gaussian 09, Revision B.01,
 Gaussian 09:  EM64L-G09RevB.01 12-Aug-2010

 ----------------------------------------------------------------------
 #p Temperature=348.15 int=(grid=ultrafine) CPHF=(grid=fine) freq rb3ly
 p/aug-cc-pvdz
 ----------------------------------------------------------------------

 ---------------------------------
 p-NO2-Ph-OTf-RB3LYP-aug-cc-pVDZ--
 ---------------------------------
 Symbolic Z-matrix:
 Charge =  0 Multiplicity = 1

                         Standard orientation:
 ---------------------------------------------------------------------
 Center     Atomic      Atomic             Coordinates (Angstroms)
 Number     Number       Type             X           Y           Z
 ---------------------------------------------------------------------
      1          6           0       -2.547760   -1.223290   -0.196971
      2          6           0       -1.162710   -1.222920   -0.357001
      3          6           0       -0.494300    0.000000   -0.437171
      4          6           0       -1.162710    1.222930   -0.356981
      5          6           0       -2.547760    1.223300   -0.196951
      6          6           0       -3.215890    0.000000   -0.120401
      7          1           0       -3.110590   -2.150789   -0.132531
      8          1           0       -0.602390   -2.153180   -0.422421
      9          1           0       -0.602389    2.153190   -0.422381
     10         16           0        1.892010   -0.000021    0.672219
     11          6           0        3.486210    0.000009   -0.373591
     12          8           0        0.889320    0.000010   -0.680281
     13          8           0        1.787730    1.287619    1.377979
     14          8           0        1.787740   -1.287681    1.377919
     15          9           0        3.528370   -1.092021   -1.133751
     16          9           0        3.528360    1.092079   -1.133701
     17          9           0        4.510260   -0.000001    0.481689
     18          1           0       -3.110589    2.150801   -0.132491
     19          7           0       -4.684710    0.000000    0.045159
     20          8           0       -5.250310   -1.087899    0.108719
     21          8           0       -5.250310    1.087901    0.108729
 ---------------------------------------------------------------------

 SCF Done:  E(RB3LYP) =  -1397.70376425     A.U. after   15 cycles

 The electronic state is 1-A.
 Alpha  occ. eigenvalues --  -89.18550 -24.80581 -24.80581 -24.80544 -19.25402
 Alpha  occ. eigenvalues --  -19.21044 -19.21044 -19.20213 -19.20213 -14.59031
 Alpha  occ. eigenvalues --  -10.51426 -10.30692 -10.27938 -10.24712 -10.24710
 Alpha  occ. eigenvalues --  -10.24416 -10.24415  -8.21435  -6.17869  -6.17680
 Alpha  occ. eigenvalues --   -6.17612  -1.38567  -1.29956  -1.29893  -1.25259
 Alpha  occ. eigenvalues --   -1.18819  -1.10138  -1.08005  -1.06590  -0.92135
 Alpha  occ. eigenvalues --   -0.84143  -0.80784  -0.80196  -0.74508  -0.70348
 Alpha  occ. eigenvalues --   -0.67241  -0.66270  -0.66056  -0.64415  -0.61834
 Alpha  occ. eigenvalues --   -0.58927  -0.57605  -0.55690  -0.54782  -0.53394
 Alpha  occ. eigenvalues --   -0.53346  -0.52634  -0.52323  -0.50981  -0.49831
 Alpha  occ. eigenvalues --   -0.49632  -0.49513  -0.49026  -0.47856  -0.47349
 Alpha  occ. eigenvalues --   -0.44880  -0.42649  -0.42292  -0.39766  -0.39658
 Alpha  occ. eigenvalues --   -0.37722  -0.36945  -0.34857  -0.33747  -0.33472
 Alpha  occ. eigenvalues --   -0.31736  -0.30869  -0.30656
 Alpha virt. eigenvalues --   -0.12025  -0.06420  -0.05649  -0.03122  -0.02833
 Alpha virt. eigenvalues --   -0.01460  -0.00275  -0.00260   0.01074   0.01739
 Alpha virt. eigenvalues --    0.02011   0.02848   0.03654   0.03805   0.04851

 Mulliken atomic charges:
              1
     1  C    1.353796
     2  C    0.835244
     3  C   -0.374497
     4  C    0.835232
     5  C    1.353773
     6  C    0.509397
     7  H   -0.845140
     8  H   -0.842956
     9  H   -0.842959
    10  S    2.214647
    11  C    1.130434
    12  O   -0.914283
    13  O   -0.857452
    14  O   -0.857447
    15  F   -0.419766
    16  F   -0.419769
    17  F   -0.386700
    18  H   -0.845139
    19  N    0.713860
    20  O   -0.670138
    21  O   -0.670138
 Sum of Mulliken atomic charges =   0.00000

 Dipole moment (field-independent basis, Debye):
    X=              2.8398    Y=              0.0000    Z=             -2.1323  Tot=              3.5512
 Quadrupole moment (field-independent basis, Debye-Ang):
   XX=           -126.5831   YY=            -99.4594   ZZ=           -105.1440
   XY=              0.0000   XZ=             -1.3843   YZ=              0.0000

  Exact polarizability: 200.519   0.000 134.125  -2.888   0.000  90.328
 Approx polarizability: 263.040   0.000 265.604  -9.181   0.001 148.573

                     1                      2                      3
                     A                      A                      A
 Frequencies --    10.1086                21.3452                41.8350
 Red. masses --     8.8984                 9.1386                13.6810
 Frc consts  --     0.0005                 0.0025                 0.0141
 IR Inten    --     0.0154                 0.2259                 0.9299

                     4                      5                      6
                     A                      A                      A
 Frequencies --    48.1491                58.0860               104.9449
 Red. masses --    15.4828                 7.3965                12.6690
 Frc consts  --     0.0211                 0.0147                 0.0822
 IR Inten    --     0.4607                 0.0250                 1.0559

                     7                      8                      9
                     A                      A                      A
 Frequencies --   142.5449               167.9107               203.9245
 Red. masses --    10.7268                16.5723                11.6186
 Frc consts  --     0.1284                 0.2753                 0.2847
 IR Inten    --     3.8063                 2.6427                 1.3044

                    10                     11                     12
                     A                      A                      A
 Frequencies --   242.5769               283.7499               283.8338
 Red. masses --    17.0229                 9.6092                11.6264
 Frc consts  --     0.5902                 0.4558                 0.5519
 IR Inten    --     8.3718                 0.7423                 1.7657

                    13                     14                     15
                     A                      A                      A
 Frequencies --   297.9340               359.6754               384.4140
 Red. masses --     9.7612                10.6242                10.7378
 Frc consts  --     0.5105                 0.8098                 0.9349
 IR Inten    --     0.1638                 0.9274                 7.4334

                    16                     17                     18
                     A                      A                      A
 Frequencies --   425.7994               443.0875               452.0225
 Red. masses --     2.9629                 8.6249                11.3543
 Frc consts  --     0.3165                 0.9977                 1.3669
 IR Inten    --     0.2354                 5.7533                12.5958

                    19                     20                     21
                     A                      A                      A
 Frequencies --   505.5629               527.0850               532.4335
 Red. masses --     5.0433                12.7321                 7.0387
 Frc consts  --     0.7595                 2.0841                 1.1756
 IR Inten    --    42.4404                17.2099                 0.1340

                    22                     23                     24
                     A                      A                      A
 Frequencies --   539.3056               578.6121               628.7137
 Red. masses --    16.5652                12.3462                 7.0469
 Frc consts  --     2.8387                 2.4353                 1.6412
 IR Inten    --     0.0063               113.9948                17.6785

                    25                     26                     27
                     A                      A                      A
 Frequencies --   638.5395               692.5616               702.0345
 Red. masses --     7.2528                10.9606                 3.3842
 Frc consts  --     1.7423                 3.0974                 0.9827
 IR Inten    --     0.0027               271.6108                 9.6396

                    28                     29                     30
                     A                      A                      A
 Frequencies --   752.6037               778.3904               828.1540
 Red. masses --    16.0981                 5.4332                 1.2415
 Frc consts  --     5.3723                 1.9395                 0.5017
 IR Inten    --    16.9258                22.2280                 0.1682

                    31                     32                     33
                     A                      A                      A
 Frequencies --   828.5902               871.3841               880.1900
 Red. masses --     8.1997                 9.4462                 1.9138
 Frc consts  --     3.3169                 4.2260                 0.8736
 IR Inten    --    84.5364               132.0745                39.3052

                    34                     35                     36
                     A                      A                      A
 Frequencies --   981.9742               990.9491              1022.9638
 Red. masses --     1.3866                 1.3630                 2.7094
 Frc consts  --     0.7878                 0.7886                 1.6705
 IR Inten    --     1.4363                 0.1220                15.0775

                    37                     38                     39
                     A                      A                      A
 Frequencies --  1061.2208              1112.0581              1118.4346
 Red. masses --    15.0755                 1.2280                 2.9693
 Frc consts  --    10.0030                 0.8947                 2.1884
 IR Inten    --   226.5197                 9.9082                15.5219

                    40                     41                     42
                     A                      A                      A
 Frequencies --  1145.7734              1170.9497              1202.2601
 Red. masses --     5.1117                 1.5869                 4.7177
 Frc consts  --     3.9538                 1.2820                 4.0177
 IR Inten    --   337.1470                 6.1871                48.4090

                    43                     44                     45
                     A                      A                      A
 Frequencies --  1210.4256              1214.5997              1294.6235
 Red. masses --     8.4772                13.3059                 1.6088
 Frc consts  --     7.3178                11.5654                 1.5887
 IR Inten    --   261.3878               154.5841                33.1404

                    46                     47                     48
                     A                      A                      A
 Frequencies --  1303.5478              1366.7065              1383.7926
 Red. masses --     4.9213                 9.5384                14.4208
 Frc consts  --     4.9270                10.4973                16.2697
 IR Inten    --   177.9929                23.4531               310.9706

                    49                     50                     51
                     A                      A                      A
 Frequencies --  1435.9596              1504.8679              1595.6711
 Red. masses --     3.6161                 2.4668                12.4898
 Frc consts  --     4.3932                 3.2914                18.7366
 IR Inten    --     0.0236                69.9353               188.0525

                    52                     53                     54
                     A                      A                      A
 Frequencies --  1631.9546              1655.2960              3218.1279
 Red. masses --     6.2532                 8.8506                 1.0914
 Frc consts  --     9.8122                14.2881                 6.6598
 IR Inten    --    49.0365                68.4339                 0.0228

                    55                     56                     57
                     A                      A                      A
 Frequencies --  3218.6044              3236.6412              3237.3227
 Red. masses --     1.0914                 1.0942                 1.0952
 Frc consts  --     6.6613                 6.7534                 6.7625
 IR Inten    --     0.0371                 4.3967                 5.6642

 - Thermochemistry -
 -------------------
 Temperature   348.150 Kelvin.  Pressure   1.00000 Atm.
 Atom     1 has atomic number  6 and mass  12.00000

 Molecular mass:   270.97623 amu.
 Principal axes and moments of inertia in atomic units:
                           1         2         3
     Eigenvalues --  1326.44151********************
           X            1.00000   0.00000   0.00273
           Y            0.00000   1.00000   0.00000
           Z           -0.00273   0.00000   1.00000
 This molecule is an asymmetric top.
 Rotational symmetry number  1.
 Warning -- assumption of classical behavior for rotation
           may cause significant error
 Rotational temperatures (Kelvin)      0.06530     0.00836     0.00813
 Rotational constants (GHZ):           1.36059     0.17410     0.16932
 Zero-point vibrational energy     314443.4 (Joules/Mol)
                                   75.15377 (Kcal/Mol)
 Warning -- explicit consideration of  27 degrees of freedom as
           vibrations may cause significant error
 Vibrational temperatures:     14.54    30.71    60.19    69.28    83.57
          (Kelvin)            150.99   205.09   241.59   293.40   349.01
                              408.25   408.37   428.66   517.49   553.09
                              612.63   637.50   650.36   727.39   758.36
                              766.05   775.94   832.49   904.58   918.71
                              996.44  1010.07  1082.83  1119.93  1191.53
                             1192.16  1253.73  1266.40  1412.84  1425.75
                             1471.81  1526.86  1600.00  1609.18  1648.51
                             1684.73  1729.78  1741.53  1747.54  1862.67
                             1875.51  1966.38  1990.97  2066.02  2165.17
                             2295.81  2348.02  2381.60  4630.16  4630.85
                             4656.80  4657.78

 Zero-point correction=                           0.119765 (Hartree/Particle)
 Thermal correction to Energy=                    0.139653
 Thermal correction to Enthalpy=                  0.140756
 Thermal correction to Gibbs Free Energy=         0.061867
 Sum of electronic and zero-point Energies=          -1397.583999
 Sum of electronic and thermal Energies=             -1397.564111
 Sum of electronic and thermal Enthalpies=           -1397.563009
 Sum of electronic and thermal Free Energies=        -1397.641898

                     E (Thermal)             CV                S
                      KCal/Mol        Cal/Mol-Kelvin    Cal/Mol-Kelvin
 Total                   87.634             61.002            142.190
 Electronic               0.000              0.000              0.000
 Translational            1.038              2.981             43.460
 Rotational               1.038              2.981             33.811
 Vibrational             85.558             55.040             64.919
 Vibration     1          0.692              1.987              8.298
 Vibration     2          0.692              1.986              6.813
 Vibration     3          0.694              1.982              5.477
 Vibration     4          0.694              1.981              5.199
 Vibration     5          0.695              1.978              4.828
 Vibration     6          0.703              1.956              3.663
 Vibration     7          0.712              1.931              3.067
 Vibration     8          0.719              1.909              2.753
 Vibration     9          0.732              1.874              2.385
 Vibration    10          0.749              1.829              2.063
 Vibration    11          0.769              1.774              1.781
 Vibration    12          0.769              1.774              1.780
 Vibration    13          0.777              1.754              1.695
 Vibration    14          0.815              1.658              1.373
 Vibration    15          0.832              1.617              1.264
 Vibration    16          0.862              1.545              1.102
 Vibration    17          0.875              1.514              1.041
 Vibration    18          0.882              1.498              1.011
 Vibration    19          0.927              1.398              0.849
 Vibration    20          0.946              1.358              0.792
 Vibration    21          0.951              1.348              0.778
 Vibration    22          0.957              1.335              0.761
 Vibration    23          0.994              1.260              0.669
 Vibration    24          1.043              1.165              0.569
 Vibration    25          1.053              1.147              0.551
 Vibration    26          1.110              1.046              0.462
 Vibration    27          1.120              1.029              0.448

 Optimization completed.
    -- Stationary point found.
 Normal termination of Gaussian 09 at Sun Jun 25 19:50:16 2006.
