 Gaussian 09, Revision B.01,
 Gaussian 09:  EM64L-G09RevB.01 12-Aug-2010

 ----------------------------------------------------------------------
 #p opt=(verytight,maxcycles=1000) int=(grid=ultrafine) CPHF=(grid=fine
 ) freq rb3lyp/aug-cc-pvdz
 ----------------------------------------------------------------------

 ---------------------------------
 p-NO2-Ph-F-BF3-RB3LYP-aug-cc-pVDZ
 ---------------------------------
 Symbolic Z-matrix:
 Charge =  0 Multiplicity = 1

 SCF Done:  E(RB3LYP) =  -860.658268473     A.U. after   14 cycles
 SCF Done:  E(RB3LYP) =  -860.660751012     A.U. after   15 cycles
 SCF Done:  E(RB3LYP) =  -860.661913112     A.U. after   15 cycles
 SCF Done:  E(RB3LYP) =  -860.657314136     A.U. after   16 cycles
 SCF Done:  E(RB3LYP) =  -860.662124781     A.U. after   15 cycles
 SCF Done:  E(RB3LYP) =  -860.662249465     A.U. after   15 cycles
 SCF Done:  E(RB3LYP) =  -860.662447468     A.U. after   12 cycles
 SCF Done:  E(RB3LYP) =  -860.662489492     A.U. after   11 cycles
 SCF Done:  E(RB3LYP) =  -860.662580248     A.U. after   11 cycles
 SCF Done:  E(RB3LYP) =  -860.662648826     A.U. after   11 cycles
 SCF Done:  E(RB3LYP) =  -860.662926373     A.U. after    5 cycles
 SCF Done:  E(RB3LYP) =  -860.662926373     A.U. after    3 cycles
 SCF Done:  E(RB3LYP) =  -860.662926373     A.U. after    4 cycles
 SCF Done:  E(RB3LYP) =  -860.662926373     A.U. after    4 cycles
 SCF Done:  E(RB3LYP) =  -860.662926373     A.U. after    5 cycles
 SCF Done:  E(RB3LYP) =  -860.662926373     A.U. after    5 cycles
 SCF Done:  E(RB3LYP) =  -860.662926373     A.U. after    5 cycles
 SCF Done:  E(RB3LYP) =  -860.662926373     A.U. after    2 cycles
 SCF Done:  E(RB3LYP) =  -860.662926373     A.U. after    4 cycles
 Optimization completed.
    -- Stationary point found.
 Normal termination of Gaussian 09 at Fri Apr 21 11:33:06 2017.

 ----------------------------------------------------------------------
 #P Geom=AllCheck Guess=TCheck SCRF=Check GenChk RB3LYP/Aug-CC-pVDZ Fre
 q
 ----------------------------------------------------------------------

 p-NO2-Ph-F-BF3-RB3LYP-aug-cc-pVDZ
 ---------------------------------
 Redundant internal coordinates taken from checkpoint file:
 /home/ubuntu/g09/Gau-10708.chk
 Charge =  0 Multiplicity = 1

                         Standard orientation:
 ---------------------------------------------------------------------
 Center     Atomic      Atomic             Coordinates (Angstroms)
 Number     Number       Type             X           Y           Z
 ---------------------------------------------------------------------
      1          6           0       -2.032552    1.347539    0.000003
      2          6           0       -0.677303    1.674531   -0.000004
      3          6           0        0.251002    0.637445   -0.000014
      4          6           0       -0.104926   -0.708001   -0.000018
      5          6           0       -1.461662   -1.030441   -0.000011
      6          6           0       -2.403548    0.000885   -0.000001
      7          1           0       -2.799665    2.117515    0.000011
      8          1           0       -0.340348    2.709249   -0.000001
      9          1           0        0.664767   -1.476907   -0.000026
     10          1           0       -1.795970   -2.064688   -0.000014
     11          7           0       -3.837264   -0.342839    0.000006
     12          8           0       -4.139002   -1.533747    0.000003
     13          8           0       -4.646108    0.582018    0.000015
     14          9           0        1.573015    0.961732   -0.000021
     15          5           0        3.921413   -0.348298    0.000010
     16          9           0        3.297060   -1.524258   -0.000012
     17          9           0        4.252710    0.222268    1.149855
     18          9           0        4.252748    0.222291   -1.149813
 ---------------------------------------------------------------------

 SCF Done:  E(RB3LYP) =  -860.662926373     A.U. after    1 cycles

 The electronic state is 1-A.
 Alpha  occ. eigenvalues --  -24.76416 -24.75574 -24.75252 -24.75248 -19.19803
 Alpha  occ. eigenvalues --  -19.19802 -14.58661 -10.32114 -10.27360 -10.24572
 Alpha  occ. eigenvalues --  -10.24546 -10.24061 -10.23967  -6.94542  -1.28607
 Alpha  occ. eigenvalues --   -1.27163  -1.24963  -1.24841  -1.24819  -1.07563
 Alpha  occ. eigenvalues --   -0.91972  -0.83262  -0.80628  -0.72582  -0.67302
 Alpha  occ. eigenvalues --   -0.63102  -0.62344  -0.59348  -0.58479  -0.58333
 Alpha  occ. eigenvalues --   -0.57370  -0.55313  -0.54958  -0.53867  -0.52023
 Alpha  occ. eigenvalues --   -0.51097  -0.49463  -0.47951  -0.47897  -0.47728
 Alpha  occ. eigenvalues --   -0.46921  -0.46765  -0.45686  -0.44744  -0.43943
 Alpha  occ. eigenvalues --   -0.40863  -0.39472  -0.33383  -0.33142  -0.31365
 Alpha  occ. eigenvalues --   -0.30696  -0.29864
 Alpha virt. eigenvalues --   -0.11324  -0.06248  -0.02669  -0.02171  -0.01002
 Alpha virt. eigenvalues --   -0.00141   0.00472   0.01851   0.01882   0.02436
 Alpha virt. eigenvalues --    0.02919   0.04445   0.04752   0.05001   0.06424

 Mulliken atomic charges:
              1
     1  C    1.438066
     2  C    0.734132
     3  C   -0.051335
     4  C    0.869582
     5  C    0.908969
     6  C    0.701839
     7  H   -0.845571
     8  H   -0.832304
     9  H   -0.835294
    10  H   -0.824755
    11  N    0.703762
    12  O   -0.670893
    13  O   -0.680735
    14  F   -0.658045
    15  B    1.391528
    16  F   -0.481772
    17  F   -0.433585
    18  F   -0.433590
 Sum of Mulliken atomic charges =   0.00000

 Dipole moment (field-independent basis, Debye):
    X=              2.6513    Y=              0.8477    Z=              0.0000  Tot=              2.7835
 Quadrupole moment (field-independent basis, Debye-Ang):
   XX=           -101.7561   YY=            -72.7183   ZZ=            -78.7642
   XY=             -6.7863   XZ=              0.0001   YZ=              0.0000

  Exact polarizability: 142.566   5.594 112.298   0.000   0.000  64.704
 Approx polarizability: 208.313   2.415 207.075  -0.001   0.000  97.480

                     1                      2                      3
                     A                      A                      A
 Frequencies --     3.9283                19.8884                34.7599
 Red. masses --    14.3993                 8.0158                11.9666
 Frc consts  --     0.0001                 0.0019                 0.0085
 IR Inten    --     0.3784                 0.0165                 0.3840

                     4                      5                      6
                     A                      A                      A
 Frequencies --    51.5016                61.1189                64.4807
 Red. masses --    13.5133                 7.8672                15.1049
 Frc consts  --     0.0211                 0.0173                 0.0370
 IR Inten    --     0.5595                 0.0298                 0.3551

                     7                      8                      9
                     A                      A                      A
 Frequencies --    79.2036               117.3312               229.0563
 Red. masses --    16.0752                10.9760                 9.5932
 Frc consts  --     0.0594                 0.0890                 0.2966
 IR Inten    --     0.2238                 3.9772                 3.8757

                    10                     11                     12
                     A                      A                      A
 Frequencies --   311.6721               356.3046               407.8725
 Red. masses --     7.5439                13.3875                 7.1794
 Frc consts  --     0.4318                 1.0014                 0.7037
 IR Inten    --     0.0694                 0.7155                 3.3678

                    13                     14                     15
                     A                      A                      A
 Frequencies --   430.7548               455.2977               456.1755
 Red. masses --     2.9760                17.8112                17.8299
 Frc consts  --     0.3253                 2.1754                 2.1861
 IR Inten    --     0.0185                10.1112                10.5845

                    16                     17                     18
                     A                      A                      A
 Frequencies --   500.5441               532.5584               621.6398
 Red. masses --     2.8736                 6.8586                 8.1877
 Frc consts  --     0.4242                 1.1461                 1.8642
 IR Inten    --     8.6882                 0.7445                48.6240

                    19                     20                     21
                     A                      A                      A
 Frequencies --   636.2379               681.3854               701.8437
 Red. masses --     7.2332                11.8063                 3.6113
 Frc consts  --     1.7251                 3.2296                 1.0481
 IR Inten    --     0.3061               191.0749                11.4974

                    22                     23                     24
                     A                      A                      A
 Frequencies --   773.6401               809.6788               828.8616
 Red. masses --     4.6389                 7.4904                 1.2477
 Frc consts  --     1.6359                 2.8932                 0.5050
 IR Inten    --    22.2428                 0.6416                 0.5781

                    25                     26                     27
                     A                      A                      A
 Frequencies --   849.9630               873.0482               878.2786
 Red. masses --    18.9363                 9.2863                 1.7793
 Frc consts  --     8.0602                 4.1703                 0.8086
 IR Inten    --     1.2044                52.0361                44.7064

                    28                     29                     30
                     A                      A                      A
 Frequencies --   989.1940               996.6100              1020.6651
 Red. masses --     1.4110                 1.3583                 2.5635
 Frc consts  --     0.8135                 0.7949                 1.5734
 IR Inten    --     0.1461                 0.0036                 7.2153

                    31                     32                     33
                     A                      A                      A
 Frequencies --  1109.8595              1120.5995              1164.5343
 Red. masses --     1.2104                 2.8622                 1.2918
 Frc consts  --     0.8785                 2.1177                 1.0321
 IR Inten    --    10.1223                41.6997                25.5187

                    34                     35                     36
                     A                      A                      A
 Frequencies --  1231.4318              1293.0518              1373.7553
 Red. masses --     4.3903                 1.2827                10.1190
 Frc consts  --     3.9226                 1.2636                11.2514
 IR Inten    --   134.0868                 2.0741                17.9025

                    37                     38                     39
                     A                      A                      A
 Frequencies --  1382.3657              1395.4346              1416.2649
 Red. masses --    14.2512                11.9945                12.2912
 Frc consts  --    16.0453                13.7610                14.5256
 IR Inten    --   364.1386               342.4908               389.9967

                    40                     41                     42
                     A                      A                      A
 Frequencies --  1439.7735              1510.8749              1594.8383
 Red. masses --     3.8016                 2.6201                13.0328
 Frc consts  --     4.6431                 3.5239                19.5309
 IR Inten    --     2.6599                93.5149               197.7852

                    43                     44                     45
                     A                      A                      A
 Frequencies --  1634.1143              1661.3878              3215.3737
 Red. masses --     6.3445                 8.6882                 1.0915
 Frc consts  --     9.9819                14.1294                 6.6488
 IR Inten    --    90.2757                62.5678                 0.0639

                    46                     47                     48
                     A                      A                      A
 Frequencies --  3222.1113              3236.4882              3237.1159
 Red. masses --     1.0908                 1.0941                 1.0951
 Frc consts  --     6.6725                 6.7521                 6.7615
 IR Inten    --     0.9328                 4.6305                 4.3666

 - Thermochemistry -
 -------------------
 Temperature   298.150 Kelvin.  Pressure   1.00000 Atm.
 Atom     1 has atomic number  6 and mass  12.00000

 Molecular mass:   209.02712 amu.
 Principal axes and moments of inertia in atomic units:
                           1         2         3
     Eigenvalues --   918.903917664.055278224.16537
           X            1.00000  -0.00067   0.00000
           Y            0.00067   1.00000   0.00000
           Z            0.00000   0.00000   1.00000
 This molecule is an asymmetric top.
 Rotational symmetry number  1.
 Warning -- assumption of classical behavior for rotation
           may cause significant error
 Rotational temperatures (Kelvin)      0.09426     0.01130     0.01053
 Rotational constants (GHZ):           1.96402     0.23548     0.21944
 Zero-point vibrational energy     281199.4 (Joules/Mol)
                                   67.20827 (Kcal/Mol)
 Warning -- explicit consideration of  17 degrees of freedom as
           vibrations may cause significant error
 Vibrational temperatures:      5.65    28.62    50.01    74.10    87.94
          (Kelvin)             92.77   113.96   168.81   329.56   448.43
                              512.64   586.84   619.76   655.07   656.33
                              720.17   766.23   894.40   915.40   980.36
                             1009.80  1113.09  1164.95  1192.55  1222.91
                             1256.12  1263.65  1423.23  1433.90  1468.51
                             1596.84  1612.29  1675.50  1771.75  1860.41
                             1976.52  1988.91  2007.72  2037.69  2071.51
                             2173.81  2294.61  2351.12  2390.36  4626.20
                             4635.89  4656.58  4657.48

 Zero-point correction=                           0.107103 (Hartree/Particle)
 Thermal correction to Energy=                    0.120556
 Thermal correction to Enthalpy=                  0.121500
 Thermal correction to Gibbs Free Energy=         0.060177
 Sum of electronic and zero-point Energies=           -860.555823
 Sum of electronic and thermal Energies=              -860.542371
 Sum of electronic and thermal Enthalpies=            -860.541426
 Sum of electronic and thermal Free Energies=         -860.602750

                     E (Thermal)             CV                S
                      KCal/Mol        Cal/Mol-Kelvin    Cal/Mol-Kelvin
 Total                   75.650             44.902            129.066
 Electronic               0.000              0.000              0.000
 Translational            0.889              2.981             41.916
 Rotational               0.889              2.981             32.427
 Vibrational             73.872             38.941             54.723
 Vibration     1          0.593              1.987              9.868
 Vibration     2          0.593              1.986              6.645
 Vibration     3          0.594              1.983              5.537
 Vibration     4          0.596              1.977              4.759
 Vibration     5          0.597              1.973              4.421
 Vibration     6          0.597              1.971              4.315
 Vibration     7          0.600              1.963              3.911
 Vibration     8          0.608              1.935              3.144
 Vibration     9          0.652              1.797              1.886
 Vibration    10          0.700              1.651              1.353
 Vibration    11          0.732              1.562              1.138
 Vibration    12          0.772              1.453              0.934
 Vibration    13          0.792              1.403              0.856
 Vibration    14          0.814              1.349              0.780
 Vibration    15          0.814              1.347              0.777
 Vibration    16          0.856              1.249              0.657
 Vibration    17          0.888              1.178              0.582

 Normal termination of Gaussian 09 at Fri Apr 21 12:05:16 2017.
