 Gaussian 09, Revision B.01,
 Gaussian 09:  EM64L-G09RevB.01 12-Aug-2010

 ----------------------------------------------------------------------
 #p scrf=(cpcm,solvent=water) opt Temperature=348.15 int=(grid=ultrafin
 e) CPHF=(grid=fine) freq rb3lyp/aug-cc-pvdz
 ----------------------------------------------------------------------

 ------------------------
 BF3-RB3LYP-aug-cc-pVDZ--
 ------------------------
 Symbolic Z-matrix:
 Charge =  0 Multiplicity = 1

 SCF Done:  E(RB3LYP) =  -324.598333429     A.U. after    8 cycles
 SCF Done:  E(RB3LYP) =  -324.598335345     A.U. after    6 cycles
 Optimization completed.
    -- Stationary point found.
 Normal termination of Gaussian 09 at Tue Aug 20 14:47:48 2019.

 ----------------------------------------------------------------------
 #P Geom=AllCheck Guess=TCheck SCRF=Check GenChk RB3LYP/Aug-CC-pVDZ Fre
 q
 ----------------------------------------------------------------------

 BF3-RB3LYP-aug-cc-pVDZ--
 ------------------------
 Redundant internal coordinates taken from checkpoint file:
 /home/ubuntu/g09/Gau-17852.chk
 Charge =  0 Multiplicity = 1

                         Standard orientation:
 ---------------------------------------------------------------------
 Center     Atomic      Atomic             Coordinates (Angstroms)
 Number     Number       Type             X           Y           Z
 ---------------------------------------------------------------------
      1          5           0        0.000000    0.000000   -0.000015
      2          9           0        0.000000    0.000000    1.327868
      3          9           0        0.000000    1.150002   -0.663930
      4          9           0        0.000000   -1.150002   -0.663930
 ---------------------------------------------------------------------

 SCF Done:  E(RB3LYP) =  -324.598335345     A.U. after    1 cycles

 The electronic state is 1-A1.
 Alpha  occ. eigenvalues --  -24.75110 -24.75106 -24.75105  -6.94435  -1.28314
 Alpha  occ. eigenvalues --   -1.24639  -1.24639  -0.62114  -0.58181  -0.58181
 Alpha  occ. eigenvalues --   -0.53723  -0.47631  -0.47631  -0.46653  -0.46652
 Alpha  occ. eigenvalues --   -0.43723
 Alpha virt. eigenvalues --   -0.01478   0.00667   0.02459   0.02459   0.04117
 Alpha virt. eigenvalues --    0.11195   0.13554   0.13554   0.18143   0.18144
 Alpha virt. eigenvalues --    0.18722   0.18722   0.19212   0.20327   0.25407

 Mulliken atomic charges:
              1
     1  B    1.086040
     2  F   -0.362010
     3  F   -0.362015
     4  F   -0.362015
 Sum of Mulliken atomic charges =   0.00000

 Dipole moment (field-independent basis, Debye):
    X=              0.0000    Y=              0.0000    Z=             -0.0002  Tot=              0.0002
 Quadrupole moment (field-independent basis, Debye-Ang):
   XX=            -18.2234   YY=            -22.2555   ZZ=            -22.2552
   XY=              0.0000   XZ=              0.0000   YZ=              0.0000

  Exact polarizability:  15.077   0.000  19.901   0.000   0.000  19.900
 Approx polarizability:  16.799   0.000  21.450   0.000   0.000  21.450

                     1                      2                      3
                    B2                     A1                     B1
 Frequencies --   448.5049               448.6745               677.3885
 Red. masses --    17.7947                17.7953                11.8135
 Frc consts  --     2.1090                 2.1107                 3.1938
 IR Inten    --    18.3706                18.3514               117.9445

                     4                      5                      6
                    A1                     B2                     A1
 Frequencies --   849.1089              1370.4111              1370.5130
 Red. masses --    18.9984                12.3323                12.3320
 Frc consts  --     8.0704                13.6457                13.6474
 IR Inten    --     0.0000               563.7582               563.7953

 - Thermochemistry -
 -------------------
 Temperature   348.150 Kelvin.  Pressure   1.00000 Atm.
 Atom     1 has atomic number  5 and mass  11.00931

 Molecular mass:    68.00452 amu.
 Principal axes and moments of inertia in atomic units:
                           1         2         3
     Eigenvalues --   179.43790 179.44935 358.88725
           X            0.00000   0.00000   1.00000
           Y            1.00000   0.00000   0.00000
           Z            0.00000   1.00000   0.00000
 This molecule is an asymmetric top.
 Rotational symmetry number  2.
 Rotational temperatures (Kelvin)      0.48270     0.48266     0.24134
 Rotational constants (GHZ):          10.05775    10.05711     5.02871
 Zero-point vibrational energy      30891.2 (Joules/Mol)
                                    7.38317 (Kcal/Mol)
 Warning -- explicit consideration of   3 degrees of freedom as
           vibrations may cause significant error
 Vibrational temperatures:    645.30   645.54   974.61  1221.68  1971.71
          (Kelvin)           1971.86

 Zero-point correction=                           0.011766 (Hartree/Particle)
 Thermal correction to Energy=                    0.016195
 Thermal correction to Enthalpy=                  0.017298
 Thermal correction to Gibbs Free Energy=        -0.018922
 Sum of electronic and zero-point Energies=           -324.586570
 Sum of electronic and thermal Energies=              -324.582140
 Sum of electronic and thermal Enthalpies=            -324.581037
 Sum of electronic and thermal Free Energies=         -324.617258

                     E (Thermal)             CV                S
                      KCal/Mol        Cal/Mol-Kelvin    Cal/Mol-Kelvin
 Total                   10.163             11.267             65.284
 Electronic               0.000              0.000              0.000
 Translational            1.038              2.981             39.339
 Rotational               1.038              2.981             23.046
 Vibrational              8.087              5.306              2.898
 Vibration     1          0.879              1.504              1.023
 Vibration     2          0.880              1.504              1.022
 Vibration     3          1.094              1.074              0.485

 Optimization completed.
    -- Stationary point found.
 Normal termination of Gaussian 09 at Tue Aug 20 14:48:04 2019.
