 Gaussian 09, Revision B.01,
 Gaussian 09:  EM64L-G09RevB.01 12-Aug-2010

 ----------------------------------------------------------------------
 #p scrf=(cpcm,solvent=water) opt=(cartesian,tight,maxcycles=2000) scf=
 (verytight,maxcycles=700) NoSymm Temperature=348.15 int=(grid=ultrafin
 e) CPHF=(grid=fine) freq rb3lyp/aug-cc-pvdz
 ----------------------------------------------------------------------

 ------------------------------------
 m-NO2-Ph-N2-OTf-RB3LYP-aug-cc-pVDZ--
 ------------------------------------
 Symbolic Z-matrix:
 Charge =  0 Multiplicity = 1

 SCF Done:  E(RB3LYP) =  -1507.18995536     A.U. after   17 cycles
 SCF Done:  E(RB3LYP) =  -1507.19280133     A.U. after   13 cycles
 SCF Done:  E(RB3LYP) =  -1507.19424614     A.U. after   13 cycles
 SCF Done:  E(RB3LYP) =  -1507.19548483     A.U. after   13 cycles
 SCF Done:  E(RB3LYP) =  -1507.19625128     A.U. after   15 cycles
 SCF Done:  E(RB3LYP) =  -1507.19583278     A.U. after   16 cycles
 SCF Done:  E(RB3LYP) =  -1507.19649182     A.U. after   14 cycles
 SCF Done:  E(RB3LYP) =  -1507.19647461     A.U. after   14 cycles
 SCF Done:  E(RB3LYP) =  -1507.19659971     A.U. after   13 cycles
 SCF Done:  E(RB3LYP) =  -1507.19674556     A.U. after   13 cycles
 SCF Done:  E(RB3LYP) =  -1507.19726205     A.U. after    9 cycles
 SCF Done:  E(RB3LYP) =  -1507.19726207     A.U. after   10 cycles
 SCF Done:  E(RB3LYP) =  -1507.19726207     A.U. after    9 cycles
 SCF Done:  E(RB3LYP) =  -1507.19726207     A.U. after    9 cycles
 SCF Done:  E(RB3LYP) =  -1507.19726207     A.U. after    9 cycles
 SCF Done:  E(RB3LYP) =  -1507.19726208     A.U. after    9 cycles
 SCF Done:  E(RB3LYP) =  -1507.19726208     A.U. after    9 cycles
 SCF Done:  E(RB3LYP) =  -1507.19726207     A.U. after    9 cycles
 SCF Done:  E(RB3LYP) =  -1507.19726207     A.U. after    6 cycles
 Optimization completed.
    -- Stationary point found.
 Normal termination of Gaussian 09 at Fri Aug 23 03:14:22 2019.

 ----------------------------------------------------------------------
 #P Geom=AllCheck Guess=TCheck SCRF=Check GenChk RB3LYP/Aug-CC-pVDZ Fre
 q
 ----------------------------------------------------------------------

 ------------------------------------
 No Z-matrix found on checkpoint file.
 Cartesian coordinates read from the checkpoint file:
 /home/ubuntu/g09/Gau-2518.chk
 Charge =  0 Multiplicity = 1

                          Input orientation:
 ---------------------------------------------------------------------
 Center     Atomic      Atomic             Coordinates (Angstroms)
 Number     Number       Type             X           Y           Z
 ---------------------------------------------------------------------
      1          6           0       -1.770306   -1.394515   -0.927337
      2          6           0       -0.982703   -0.261921   -0.739047
      3          6           0       -1.609194    0.860568   -0.168683
      4          6           0       -2.956063    0.914311    0.216349
      5          6           0       -3.684155   -0.246060    0.003380
      6          6           0       -3.119432   -1.395757   -0.559462
      7          1           0       -1.328102   -2.286679   -1.365202
      8          1           0        0.073575   -0.238221   -1.014081
      9          1           0       -3.403433    1.802422    0.652564
     10          7           0       -0.846609    2.005183    0.025975
     11          7           0       -0.229527    2.913559    0.176247
     12         16           0        2.862790    0.351677   -0.433513
     13          6           0        3.509391   -1.083484    0.622464
     14          8           0        2.171087   -0.343618   -1.576178
     15          8           0        4.105828    1.104404   -0.800710
     16          8           0        1.927776    1.071985    0.500850
     17          9           0        2.493960   -1.868836    1.031986
     18          9           0        4.370906   -1.840980   -0.084226
     19          9           0        4.150751   -0.619407    1.712717
     20          1           0       -3.736534   -2.278781   -0.705786
     21          7           0       -5.111453   -0.254428    0.388455
     22          8           0       -5.746410   -1.283466    0.186857
     23          8           0       -5.572254    0.768165    0.885130
 ---------------------------------------------------------------------

 SCF Done:  E(RB3LYP) =  -1507.19726207     A.U. after    3 cycles

 Alpha  occ. eigenvalues --  -89.13065 -24.76541 -24.76528 -24.76524 -19.21942
 Alpha  occ. eigenvalues --  -19.21891 -19.14609 -19.14566 -19.14512 -14.60765
 Alpha  occ. eigenvalues --  -14.57662 -14.54430 -10.45892 -10.33585 -10.29901
 Alpha  occ. eigenvalues --  -10.28254 -10.26974 -10.26625 -10.25162  -8.15648
 Alpha  occ. eigenvalues --   -6.11980  -6.11972  -6.11957  -1.33958  -1.27010
 Alpha  occ. eigenvalues --   -1.25465  -1.25460  -1.23314  -1.12385  -1.09753
 Alpha  occ. eigenvalues --   -0.99410  -0.99245  -0.97218  -0.90437  -0.84554
 Alpha  occ. eigenvalues --   -0.77694  -0.75048  -0.74821  -0.66866  -0.65742
 Alpha  occ. eigenvalues --   -0.62447  -0.61698  -0.61696  -0.59123  -0.58212
 Alpha  occ. eigenvalues --   -0.57575  -0.57176  -0.56440  -0.55426  -0.54926
 Alpha  occ. eigenvalues --   -0.54539  -0.51333  -0.49746  -0.49493  -0.49450
 Alpha  occ. eigenvalues --   -0.47464  -0.47360  -0.46561  -0.45508  -0.45480
 Alpha  occ. eigenvalues --   -0.44217  -0.43920  -0.43590  -0.42741  -0.35367
 Alpha  occ. eigenvalues --   -0.35326  -0.35098  -0.35076  -0.33771  -0.33494
 Alpha  occ. eigenvalues --   -0.32657  -0.32017  -0.31983  -0.31100  -0.28166
 Alpha virt. eigenvalues --   -0.15115  -0.13253  -0.12814  -0.05761  -0.03101
 Alpha virt. eigenvalues --   -0.01282   0.00377   0.00704   0.01784   0.02260
 Alpha virt. eigenvalues --    0.02476   0.02951   0.03936   0.04641   0.05139

 Mulliken atomic charges:
              1
     1  C    0.668568
     2  C    1.319809
     3  C    0.830030
     4  C    0.940618
     5  C    0.364073
     6  C    0.919504
     7  H   -0.769912
     8  H   -0.871589
     9  H   -0.837086
    10  N    0.572087
    11  N   -0.679218
    12  S    2.297202
    13  C    1.000973
    14  O   -0.994151
    15  O   -0.977107
    16  O   -0.980723
    17  F   -0.455104
    18  F   -0.419887
    19  F   -0.434605
    20  H   -0.821434
    21  N    0.736260
    22  O   -0.715013
    23  O   -0.693297
 Sum of Mulliken atomic charges =   0.00000

 Dipole moment (field-independent basis, Debye):
    X=            -15.0636    Y=              1.0529    Z=              0.2759  Tot=             15.1028
 Quadrupole moment (field-independent basis, Debye-Ang):
   XX=           -171.8216   YY=           -100.7682   ZZ=           -117.6277
   XY=            -10.9635   XZ=             14.1165   YZ=              2.9065

  Exact polarizability: 252.793  35.673 234.282 -16.532  25.824 146.309
 Approx polarizability: 288.810  53.046 311.213 -18.129  45.552 175.628

                     1                      2                      3
                     A                      A                      A
 Frequencies --     7.7871                21.8626                25.0938
 Red. masses --    14.5917                14.6424                10.0787
 Frc consts  --     0.0005                 0.0041                 0.0037
 IR Inten    --     1.1812                 6.9176                 6.7603

                     4                      5                      6
                     A                      A                      A
 Frequencies --    37.0821                46.1795                53.1143
 Red. masses --    12.4657                12.4110                 9.7286
 Frc consts  --     0.0101                 0.0156                 0.0162
 IR Inten    --    10.1476                 6.9559                 5.3530

                     7                      8                      9
                     A                      A                      A
 Frequencies --    67.2847                75.5696               136.3007
 Red. masses --    13.2962                15.4938                 9.5143
 Frc consts  --     0.0355                 0.0521                 0.1041
 IR Inten    --    21.1263                13.3147                 3.6867

                    10                     11                     12
                     A                      A                      A
 Frequencies --   143.2569               181.5772               186.8331
 Red. masses --     7.4819                14.1127                17.1435
 Frc consts  --     0.0905                 0.2741                 0.3526
 IR Inten    --     1.7649                 3.3213                 2.4484

                    13                     14                     15
                     A                      A                      A
 Frequencies --   188.7676               257.6251               276.7552
 Red. masses --     5.4555                 7.4260                17.9033
 Frc consts  --     0.1145                 0.2904                 0.8079
 IR Inten    --     1.6013                 0.5487                 1.3415

                    16                     17                     18
                     A                      A                      A
 Frequencies --   317.4229               320.8953               380.8537
 Red. masses --    17.4971                17.5307                10.8798
 Frc consts  --     1.0387                 1.0636                 0.9298
 IR Inten    --     0.7926                 4.1507                14.6432

                    19                     20                     21
                     A                      A                      A
 Frequencies --   401.8919               434.0821               444.6946
 Red. masses --     4.0202                 4.1941                 9.3472
 Frc consts  --     0.3826                 0.4656                 1.0891
 IR Inten    --     0.0193                 1.5552                 9.5638

                    22                     23                     24
                     A                      A                      A
 Frequencies --   467.0394               469.4408               515.9849
 Red. masses --    17.7916                17.6506                10.0235
 Frc consts  --     2.2865                 2.2918                 1.5723
 IR Inten    --    41.8627                55.6526                 3.2058

                    25                     26                     27
                     A                      A                      A
 Frequencies --   538.0214               538.6747               565.4241
 Red. masses --    18.1132                18.0680                 7.9309
 Frc consts  --     3.0892                 3.0890                 1.4939
 IR Inten    --     7.2628                 6.8941                60.1142

                    28                     29                     30
                     A                      A                      A
 Frequencies --   567.1369               576.5207               657.0591
 Red. masses --    17.8140                 6.7953                 2.5892
 Frc consts  --     3.3759                 1.3307                 0.6586
 IR Inten    --   216.9270                 3.4726                26.8783

                    31                     32                     33
                     A                      A                      A
 Frequencies --   673.5360               728.1084               752.0028
 Red. masses --     7.5201                18.0739                 4.3887
 Frc consts  --     2.0100                 5.6454                 1.4623
 IR Inten    --     5.9882                 0.8278                45.4156

                    34                     35                     36
                     A                      A                      A
 Frequencies --   795.5994               832.2879               910.8404
 Red. masses --    10.6824                 1.4313                 6.9965
 Frc consts  --     3.9839                 0.5842                 3.4199
 IR Inten    --    39.9388                21.3342                52.9124

                    37                     38                     39
                     A                      A                      A
 Frequencies --   931.0693               932.7116               997.3919
 Red. masses --    15.8762                 1.5566                 1.3635
 Frc consts  --     8.1089                 0.7979                 0.7992
 IR Inten    --   272.0959                14.1943                 1.5277

                    40                     41                     42
                     A                      A                      A
 Frequencies --  1008.5292              1033.6934              1091.3315
 Red. masses --     6.0675                 1.3650                 1.6888
 Frc consts  --     3.6361                 0.8593                 1.1850
 IR Inten    --     4.8157                 1.4643               130.7456

                    43                     44                     45
                     A                      A                      A
 Frequencies --  1110.8299              1113.1451              1115.2108
 Red. masses --     3.2101                 2.7803                 9.4468
 Frc consts  --     2.3338                 2.0298                 6.9223
 IR Inten    --    22.4165                17.2021               158.3888

                    46                     47                     48
                     A                      A                      A
 Frequencies --  1130.1692              1149.1871              1155.6566
 Red. masses --    14.9335                17.1951                14.5024
 Frc consts  --    11.2382                13.3794                11.4116
 IR Inten    --   811.4488               657.7612               293.7090

                    49                     50                     51
                     A                      A                      A
 Frequencies --  1160.3611              1190.9881              1302.3608
 Red. masses --     6.4517                 1.1374                 1.3430
 Frc consts  --     5.1181                 0.9506                 1.3421
 IR Inten    --    65.1062                 8.8699                 1.6087

                    52                     53                     54
                     A                      A                      A
 Frequencies --  1377.4652              1383.1880              1460.4682
 Red. masses --    10.0149                12.4389                 2.5909
 Frc consts  --    11.1959                14.0215                 3.2560
 IR Inten    --    35.5395               467.6302                14.8229

                    55                     56                     57
                     A                      A                      A
 Frequencies --  1477.3174              1575.6039              1613.4730
 Red. masses --     2.3905                 9.8159                 6.4649
 Frc consts  --     3.0738                14.3574                 9.9160
 IR Inten    --    17.6250               292.7246                23.8389

                    58                     59                     60
                     A                      A                      A
 Frequencies --  1632.7186              2384.3612              3167.5838
 Red. masses --     7.9741                13.9663                 1.0988
 Frc consts  --    12.5244                46.7818                 6.4957
 IR Inten    --   354.5437               328.0183               303.5845

                    61                     62                     63
                     A                      A                      A
 Frequencies --  3225.7221              3241.1996              3250.8354
 Red. masses --     1.0925                 1.0949                 1.0952
 Frc consts  --     6.6976                 6.7770                 6.8194
 IR Inten    --     4.4013                12.0328                36.1145

 - Thermochemistry -
 -------------------
 Temperature   348.150 Kelvin.  Pressure   1.00000 Atm.
 Atom     1 has atomic number  6 and mass  12.00000

 Molecular mass:   298.98238 amu.
 Principal axes and moments of inertia in atomic units:
                           1         2         3
     Eigenvalues --  2371.31960********************
           X            0.99920   0.03987   0.00404
           Y           -0.04002   0.99786   0.05173
           Z           -0.00197  -0.05185   0.99865
 This molecule is an asymmetric top.
 Rotational symmetry number  1.
 Warning -- assumption of classical behavior for rotation
           may cause significant error
 Rotational temperatures (Kelvin)      0.03653     0.00656     0.00606
 Rotational constants (GHZ):           0.76107     0.13662     0.12628
 Zero-point vibrational energy     333789.1 (Joules/Mol)
                                   79.77751 (Kcal/Mol)
 Warning -- explicit consideration of  31 degrees of freedom as
           vibrations may cause significant error
 Vibrational temperatures:     11.20    31.46    36.10    53.35    66.44
          (Kelvin)             76.42    96.81   108.73   196.11   206.11
                              261.25   268.81   271.59   370.66   398.19
                              456.70   461.70   547.96   578.23   624.55
                              639.82   671.96   675.42   742.39   774.09
                              775.03   813.52   815.98   829.48   945.36
                              969.07  1047.58  1081.96  1144.69  1197.48
                             1310.49  1339.60  1341.96  1435.02  1451.05
                             1487.25  1570.18  1598.23  1601.57  1604.54
                             1626.06  1653.42  1662.73  1669.50  1713.56
                             1873.80  1981.86  1990.10  2101.29  2125.53
                             2266.94  2321.42  2349.11  3430.56  4557.44
                             4641.09  4663.36  4677.22

 Zero-point correction=                           0.127134 (Hartree/Particle)
 Thermal correction to Energy=                    0.150808
 Thermal correction to Enthalpy=                  0.151910
 Thermal correction to Gibbs Free Energy=         0.061980
 Sum of electronic and zero-point Energies=          -1507.070129
 Sum of electronic and thermal Energies=             -1507.046454
 Sum of electronic and thermal Enthalpies=           -1507.045352
 Sum of electronic and thermal Free Energies=        -1507.135282

                     E (Thermal)             CV                S
                      KCal/Mol        Cal/Mol-Kelvin    Cal/Mol-Kelvin
 Total                   94.633             69.961            162.092
 Electronic               0.000              0.000              0.000
 Translational            1.038              2.981             43.753
 Rotational               1.038              2.981             34.921
 Vibrational             92.558             63.999             83.418
 Vibration     1          0.692              1.987              8.816
 Vibration     2          0.692              1.986              6.765
 Vibration     3          0.692              1.985              6.492
 Vibration     4          0.693              1.983              5.717
 Vibration     5          0.694              1.981              5.282
 Vibration     6          0.695              1.979              5.005
 Vibration     7          0.696              1.974              4.537
 Vibration     8          0.697              1.971              4.308
 Vibration     9          0.710              1.935              3.154
 Vibration    10          0.712              1.930              3.058
 Vibration    11          0.724              1.897              2.604
 Vibration    12          0.726              1.891              2.550
 Vibration    13          0.727              1.889              2.530
 Vibration    14          0.756              1.810              1.954
 Vibration    15          0.766              1.784              1.825
 Vibration    16          0.788              1.725              1.585
 Vibration    17          0.790              1.720              1.566
 Vibration    18          0.829              1.623              1.279
 Vibration    19          0.844              1.587              1.193
 Vibration    20          0.868              1.530              1.073
 Vibration    21          0.876              1.511              1.036
 Vibration    22          0.894              1.470              0.963
 Vibration    23          0.896              1.466              0.955
 Vibration    24          0.936              1.379              0.821
 Vibration    25          0.956              1.337              0.764
 Vibration    26          0.956              1.336              0.762
 Vibration    27          0.981              1.285              0.699
 Vibration    28          0.983              1.282              0.695
 Vibration    29          0.992              1.264              0.674
 Vibration    30          1.072              1.112              0.518
 Vibration    31          1.090              1.081              0.491

 Normal termination of Gaussian 09 at Fri Aug 23 04:48:39 2019.
