 Gaussian 09, Revision B.01,
 Gaussian 09:  EM64L-G09RevB.01 12-Aug-2010

 ----------------------------------------------------------------------
 #p scrf=(cpcm,solvent=water) opt Temperature=348.15 int=(grid=ultrafin
 e) CPHF=(grid=fine) freq rb3lyp/aug-cc-pvdz
 ----------------------------------------------------------------------

 ---------------------------------
 m-NO2-Ph-OTf-RB3LYP-aug-cc-pVDZ--
 ---------------------------------
 Symbolic Z-matrix:
 Charge =  0 Multiplicity = 1

 SCF Done:  E(RB3LYP) =  -1397.71336487     A.U. after   15 cycles
 SCF Done:  E(RB3LYP) =  -1397.71354287     A.U. after   12 cycles
 SCF Done:  E(RB3LYP) =  -1397.70894236     A.U. after   15 cycles
 SCF Done:  E(RB3LYP) =  -1397.71358207     A.U. after   15 cycles
 SCF Done:  E(RB3LYP) =  -1397.71363393     A.U. after   11 cycles
 SCF Done:  E(RB3LYP) =  -1397.71364352     A.U. after   11 cycles
 SCF Done:  E(RB3LYP) =  -1397.71364746     A.U. after   11 cycles
 SCF Done:  E(RB3LYP) =  -1397.71365111     A.U. after   11 cycles
 SCF Done:  E(RB3LYP) =  -1397.71365361     A.U. after   11 cycles
 SCF Done:  E(RB3LYP) =  -1397.71365452     A.U. after   10 cycles
 SCF Done:  E(RB3LYP) =  -1397.71365474     A.U. after    9 cycles
 Optimization completed.
    -- Stationary point found.
 Normal termination of Gaussian 09 at Tue Aug 20 16:23:27 2019.

 ----------------------------------------------------------------------
 #P Geom=AllCheck Guess=TCheck SCRF=Check GenChk RB3LYP/Aug-CC-pVDZ Fre
 q
 ----------------------------------------------------------------------

 m-NO2-Ph-OTf-RB3LYP-aug-cc-pVDZ--
 ---------------------------------
 Redundant internal coordinates taken from checkpoint file:
 /home/ubuntu/g09/Gau-18165.chk
 Charge =  0 Multiplicity = 1

                         Standard orientation:
 ---------------------------------------------------------------------
 Center     Atomic      Atomic             Coordinates (Angstroms)
 Number     Number       Type             X           Y           Z
 ---------------------------------------------------------------------
      1          6           0        2.366220    2.319056   -0.202832
      2          6           0        1.013862    2.010262   -0.377288
      3          6           0        0.627952    0.669307   -0.413058
      4          6           0        1.539712   -0.372252   -0.284506
      5          6           0        2.880556   -0.024238   -0.112780
      6          6           0        3.313513    1.302545   -0.067802
      7          1           0        2.683050    3.360169   -0.176294
      8          1           0        0.267847    2.793871   -0.494206
      9          1           0        1.224922   -1.410436   -0.324355
     10         16           0       -1.730929    0.185540    0.653600
     11          6           0       -3.182341   -0.490858   -0.385696
     12          8           0       -0.722166    0.353215   -0.669785
     13          8           0       -1.238144   -0.879958    1.546822
     14          8           0       -2.107105    1.507962    1.187225
     15          9           0       -3.517321    0.397995   -1.316600
     16          9           0       -2.828720   -1.642154   -0.948873
     17          9           0       -4.200596   -0.683179    0.453071
     18          1           0        4.367685    1.528130    0.065985
     19          7           0        3.870701   -1.105507    0.021137
     20          8           0        5.050652   -0.793619    0.172625
     21          8           0        3.469182   -2.267440   -0.024551
 ---------------------------------------------------------------------

 SCF Done:  E(RB3LYP) =  -1397.71365474     A.U. after    2 cycles

 The electronic state is 1-A.
 Alpha  occ. eigenvalues --  -89.18005 -24.79674 -24.79673 -24.79652 -19.24703
 Alpha  occ. eigenvalues --  -19.20571 -19.20566 -19.20491 -19.20435 -14.59312
 Alpha  occ. eigenvalues --  -10.50670 -10.29402 -10.27402 -10.23912 -10.23433
 Alpha  occ. eigenvalues --  -10.23375 -10.22850  -8.20880  -6.17309  -6.17137
 Alpha  occ. eigenvalues --   -6.17053  -1.37693  -1.29089  -1.29027  -1.25501
 Alpha  occ. eigenvalues --   -1.18210  -1.09364  -1.08125  -1.05911  -0.91261
 Alpha  occ. eigenvalues --   -0.83437  -0.80902  -0.78003  -0.73123  -0.71777
 Alpha  occ. eigenvalues --   -0.65968  -0.65195  -0.64759  -0.63587  -0.61085
 Alpha  occ. eigenvalues --   -0.58693  -0.55835  -0.55594  -0.54416  -0.53115
 Alpha  occ. eigenvalues --   -0.52657  -0.52119  -0.51689  -0.51324  -0.50304
 Alpha  occ. eigenvalues --   -0.48944  -0.48688  -0.47421  -0.46662  -0.46431
 Alpha  occ. eigenvalues --   -0.42067  -0.41837  -0.40884  -0.39384  -0.39032
 Alpha  occ. eigenvalues --   -0.37224  -0.36338  -0.34620  -0.34165  -0.33836
 Alpha  occ. eigenvalues --   -0.32101  -0.30143  -0.29259
 Alpha virt. eigenvalues --   -0.11970  -0.06296  -0.03680  -0.02449  -0.01900
 Alpha virt. eigenvalues --   -0.00754   0.00281   0.00713   0.01845   0.02280
 Alpha virt. eigenvalues --    0.02726   0.03715   0.04075   0.04528   0.05155

 Mulliken atomic charges:
              1
     1  C    0.789260
     2  C    0.791539
     3  C    0.045527
     4  C    1.053824
     5  C    0.874163
     6  C    0.940303
     7  H   -0.719811
     8  H   -0.817866
     9  H   -0.858902
    10  S    2.249674
    11  C    1.133447
    12  O   -0.933959
    13  O   -0.896193
    14  O   -0.899475
    15  F   -0.414466
    16  F   -0.422722
    17  F   -0.386802
    18  H   -0.819488
    19  N    0.760434
    20  O   -0.744089
    21  O   -0.724397
 Sum of Mulliken atomic charges =   0.00000

 Dipole moment (field-independent basis, Debye):
    X=             -1.5563    Y=              4.5536    Z=             -2.7812  Tot=              5.5581
 Quadrupole moment (field-independent basis, Debye-Ang):
   XX=           -116.1760   YY=           -100.7115   ZZ=           -105.7424
   XY=             20.4600   XZ=              2.2465   YZ=             -0.5735

  Exact polarizability: 236.760  -7.293 208.084   6.207  -2.449 123.105
 Approx polarizability: 265.993  -1.832 262.102  12.012  -2.285 148.990

                     1                      2                      3
                     A                      A                      A
 Frequencies --    14.9700                25.9745                40.1082
 Red. masses --    12.5410                11.0685                15.4030
 Frc consts  --     0.0017                 0.0044                 0.0146
 IR Inten    --     1.4799                 1.7326                 0.1407

                     4                      5                      6
                     A                      A                      A
 Frequencies --    46.5903                63.7836               124.6151
 Red. masses --    16.4757                 9.0128                10.2430
 Frc consts  --     0.0211                 0.0216                 0.0937
 IR Inten    --     0.5979                 0.7629                 3.4421

                     7                      8                      9
                     A                      A                      A
 Frequencies --   160.8659               169.2636               186.4942
 Red. masses --    14.5633                 6.3414                11.4006
 Frc consts  --     0.2220                 0.1070                 0.2336
 IR Inten    --     5.2901                 3.2019                 4.4923

                    10                     11                     12
                     A                      A                      A
 Frequencies --   234.2432               241.7468               283.2782
 Red. masses --     5.1642                16.2053                10.3241
 Frc consts  --     0.1670                 0.5580                 0.4881
 IR Inten    --     3.6015                11.3138                 2.3609

                    13                     14                     15
                     A                      A                      A
 Frequencies --   289.4991               353.7804               395.6322
 Red. masses --    17.3195                11.5751                 9.7760
 Frc consts  --     0.8552                 0.8536                 0.9016
 IR Inten    --     3.0457                 4.5931                 0.6172

                    16                     17                     18
                     A                      A                      A
 Frequencies --   428.7871               447.1432               449.0351
 Red. masses --     5.0193                 5.5235                 9.1767
 Frc consts  --     0.5437                 0.6507                 1.0902
 IR Inten    --     4.2802                17.7415                26.7583

                    19                     20                     21
                     A                      A                      A
 Frequencies --   488.0717               519.7138               537.0353
 Red. masses --    11.2300                 8.7187                12.2175
 Frc consts  --     1.5761                 1.3875                 2.0760
 IR Inten    --    84.6229                97.1070                 0.9521

                    22                     23                     24
                     A                      A                      A
 Frequencies --   539.3184               552.9563               624.9213
 Red. masses --    13.9575                 8.5260                 8.1590
 Frc consts  --     2.3919                 1.5360                 1.8773
 IR Inten    --     2.0800                32.7980                95.4070

                    25                     26                     27
                     A                      A                      A
 Frequencies --   658.7690               679.3671               693.8610
 Red. masses --     8.0506                 2.1859                10.2520
 Frc consts  --     2.0585                 0.5944                 2.9081
 IR Inten    --   165.0337                14.2530               143.2116

                    28                     29                     30
                     A                      A                      A
 Frequencies --   753.4298               762.5097               812.7429
 Red. masses --    13.9892                 4.6699                 1.6326
 Frc consts  --     4.6787                 1.5997                 0.6354
 IR Inten    --    37.1856                52.7427                27.9837

                    31                     32                     33
                     A                      A                      A
 Frequencies --   820.8124               910.9027               928.6801
 Red. masses --    10.7237                 1.6389                 5.7501
 Frc consts  --     4.2568                 0.8012                 2.9218
 IR Inten    --   253.9191                29.1944               124.3553

                    34                     35                     36
                     A                      A                      A
 Frequencies --   946.1474              1006.5147              1013.0701
 Red. masses --     1.4337                 1.3553                 6.2724
 Frc consts  --     0.7562                 0.8090                 3.7928
 IR Inten    --     0.3728                 0.0729                 6.4706

                    37                     38                     39
                     A                      A                      A
 Frequencies --  1036.9951              1086.4510              1096.9789
 Red. masses --    15.2085                 1.6171                 1.5305
 Frc consts  --     9.6359                 1.1247                 1.0851
 IR Inten    --   381.0320                57.8058                19.2299

                    40                     41                     42
                     A                      A                      A
 Frequencies --  1142.3021              1171.3803              1178.9207
 Red. masses --    10.1017                 1.1413                11.0199
 Frc consts  --     7.7662                 0.9226                 9.0240
 IR Inten    --   378.1041                 4.1750               320.6372

                    43                     44                     45
                     A                      A                      A
 Frequencies --  1191.2064              1197.1488              1267.1016
 Red. masses --    13.2356                 6.5564                18.7279
 Frc consts  --    11.0654                 5.5362                17.7158
 IR Inten    --   310.7747               149.3624               405.2221

                    46                     47                     48
                     A                      A                      A
 Frequencies --  1282.9580              1365.0784              1372.6357
 Red. masses --     1.3912                 8.5385                13.5025
 Frc consts  --     1.3492                 9.3744                14.9890
 IR Inten    --     3.1174                32.2033               575.7616

                    49                     50                     51
                     A                      A                      A
 Frequencies --  1457.1857              1486.8413              1560.4650
 Red. masses --     3.2064                 2.5295                10.9390
 Frc consts  --     4.0114                 3.2947                15.6940
 IR Inten    --     0.9403                32.7984               641.0143

                    52                     53                     54
                     A                      A                      A
 Frequencies --  1628.8913              1644.5361              3210.4470
 Red. masses --     6.8699                 7.8686                 1.0895
 Frc consts  --    10.7396                12.5382                 6.6161
 IR Inten    --     1.9780                 4.8016                 3.5241

                    55                     56                     57
                     A                      A                      A
 Frequencies --  3223.9380              3242.3443              3247.9267
 Red. masses --     1.0958                 1.0944                 1.0938
 Frc consts  --     6.7106                 6.7786                 6.7980
 IR Inten    --     0.1253                 4.8366                16.4687

 - Thermochemistry -
 -------------------
 Temperature   348.150 Kelvin.  Pressure   1.00000 Atm.
 Atom     1 has atomic number  6 and mass  12.00000

 Molecular mass:   270.97623 amu.
 Principal axes and moments of inertia in atomic units:
                           1         2         3
     Eigenvalues --  1909.398298457.235819340.72749
           X            0.99998   0.00488  -0.00297
           Y           -0.00490   0.99995  -0.00858
           Z            0.00292   0.00859   0.99996
 This molecule is an asymmetric top.
 Rotational symmetry number  1.
 Warning -- assumption of classical behavior for rotation
           may cause significant error
 Rotational temperatures (Kelvin)      0.04536     0.01024     0.00927
 Rotational constants (GHZ):           0.94519     0.21340     0.19321
 Zero-point vibrational energy     312801.7 (Joules/Mol)
                                   74.76141 (Kcal/Mol)
 Warning -- explicit consideration of  27 degrees of freedom as
           vibrations may cause significant error
 Vibrational temperatures:     21.54    37.37    57.71    67.03    91.77
          (Kelvin)            179.29   231.45   243.53   268.32   337.02
                              347.82   407.57   416.52   509.01   569.23
                              616.93   643.34   646.06   702.23   747.75
                              772.67   775.96   795.58   899.12   947.82
                              977.46   998.31  1084.02  1097.08  1169.35
                             1180.96  1310.58  1336.16  1361.29  1448.15
                             1457.58  1492.00  1563.16  1578.31  1643.52
                             1685.35  1696.20  1713.88  1722.43  1823.07
                             1845.89  1964.04  1974.91  2096.56  2139.23
                             2245.16  2343.61  2366.12  4619.11  4638.52
                             4665.00  4673.04

 Zero-point correction=                           0.119140 (Hartree/Particle)
 Thermal correction to Energy=                    0.139100
 Thermal correction to Enthalpy=                  0.140203
 Thermal correction to Gibbs Free Energy=         0.061892
 Sum of electronic and zero-point Energies=          -1397.594515
 Sum of electronic and thermal Energies=             -1397.574555
 Sum of electronic and thermal Enthalpies=           -1397.573452
 Sum of electronic and thermal Free Energies=        -1397.651762

                     E (Thermal)             CV                S
                      KCal/Mol        Cal/Mol-Kelvin    Cal/Mol-Kelvin
 Total                   87.287             61.311            141.147
 Electronic               0.000              0.000              0.000
 Translational            1.038              2.981             43.460
 Rotational               1.038              2.981             33.840
 Vibrational             85.211             55.349             63.848
 Vibration     1          0.692              1.987              7.518
 Vibration     2          0.693              1.985              6.423
 Vibration     3          0.693              1.983              5.561
 Vibration     4          0.694              1.981              5.264
 Vibration     5          0.696              1.976              4.643
 Vibration     6          0.707              1.944              3.328
 Vibration     7          0.717              1.916              2.835
 Vibration     8          0.720              1.908              2.737
 Vibration     9          0.726              1.892              2.553
 Vibration    10          0.745              1.839              2.128
 Vibration    11          0.748              1.830              2.070
 Vibration    12          0.769              1.775              1.784
 Vibration    13          0.772              1.766              1.745
 Vibration    14          0.811              1.668              1.400
 Vibration    15          0.840              1.598              1.218
 Vibration    16          0.864              1.540              1.091
 Vibration    17          0.878              1.507              1.028
 Vibration    18          0.880              1.503              1.021
 Vibration    19          0.912              1.431              0.899
 Vibration    20          0.939              1.372              0.811
 Vibration    21          0.955              1.339              0.766
 Vibration    22          0.957              1.335              0.761
 Vibration    23          0.970              1.309              0.728
 Vibration    24          1.039              1.172              0.576
 Vibration    25          1.074              1.109              0.516
 Vibration    26          1.096              1.071              0.482
 Vibration    27          1.111              1.044              0.460

 Optimization completed.
    -- Stationary point found.
 Normal termination of Gaussian 09 at Tue Aug 20 17:32:45 2019.
