 Gaussian 09, Revision B.01,
 Gaussian 09:  EM64L-G09RevB.01 12-Aug-2010

 ----------------------------------------------------------------------
 #p scrf=(cpcm,solvent=water) opt Temperature=348.15 int=(grid=ultrafin
 e) CPHF=(grid=fine) freq rb3lyp/aug-cc-pvdz
 ----------------------------------------------------------------------

 -----------------------
 N2-RB3LYP-aug-cc-pVDZ--
 -----------------------
 Symbolic Z-matrix:
 Charge =  0 Multiplicity = 1

 SCF Done:  E(RB3LYP) =  -109.543201541     A.U. after    7 cycles
 SCF Done:  E(RB3LYP) =  -109.543201751     A.U. after    5 cycles
 Optimization completed.
    -- Stationary point found.
 Normal termination of Gaussian 09 at Tue Aug 20 17:32:48 2019.

 ----------------------------------------------------------------------
 #P Geom=AllCheck Guess=TCheck SCRF=Check GenChk RB3LYP/Aug-CC-pVDZ Fre
 q
 ----------------------------------------------------------------------

 N2-RB3LYP-aug-cc-pVDZ--
 -----------------------
 Redundant internal coordinates taken from checkpoint file:
 /home/ubuntu/g09/Gau-1540.chk
 Charge =  0 Multiplicity = 1

                         Standard orientation:
 ---------------------------------------------------------------------
 Center     Atomic      Atomic             Coordinates (Angstroms)
 Number     Number       Type             X           Y           Z
 ---------------------------------------------------------------------
      1          7           0        0.000000    0.000000    0.552074
      2          7           0        0.000000    0.000000   -0.552074
 ---------------------------------------------------------------------

 SCF Done:  E(RB3LYP) =  -109.543201751     A.U. after    1 cycles

 The electronic state is 1-SGG.
 Alpha  occ. eigenvalues --  -14.44777 -14.44625  -1.13229  -0.56144  -0.46908
 Alpha  occ. eigenvalues --   -0.46908  -0.43694
 Alpha virt. eigenvalues --   -0.03745  -0.03745   0.05528   0.06283   0.08278
 Alpha virt. eigenvalues --    0.08278   0.12638   0.15472   0.15472   0.25259
 Alpha virt. eigenvalues --    0.43510   0.43510   0.51637   0.54867   0.63745

 Mulliken atomic charges:
              1
     1  N    0.000000
     2  N    0.000000
 Sum of Mulliken atomic charges =   0.00000

 Dipole moment (field-independent basis, Debye):
    X=              0.0000    Y=              0.0000    Z=              0.0000  Tot=              0.0000
 Quadrupole moment (field-independent basis, Debye-Ang):
   XX=            -10.3687   YY=            -10.3687   ZZ=            -11.8940
   XY=              0.0000   XZ=              0.0000   YZ=              0.0000

  Exact polarizability:  11.593   0.000  11.593   0.000   0.000  18.029
 Approx polarizability:  13.236   0.000  13.236   0.000   0.000  28.585

                     1
                    SGG
 Frequencies --  2445.5427
 Red. masses --    14.0031
 Frc consts  --    49.3428
 IR Inten    --     0.0000

 - Thermochemistry -
 -------------------
 Temperature   348.150 Kelvin.  Pressure   1.00000 Atm.
 Atom     1 has atomic number  7 and mass  14.00307

 Molecular mass:    28.00615 amu.
 Principal axes and moments of inertia in atomic units:
                           1         2         3
     Eigenvalues --     0.00000  30.48221  30.48221
           X            0.00000   1.00000   0.00000
           Y            0.00000   0.00000   1.00000
           Z            1.00000   0.00000   0.00000
 This molecule is a prolate symmetric top.
 Rotational symmetry number  2.
 Rotational temperature (Kelvin)      2.84145
 Rotational constant (GHZ):          59.206384
 Zero-point vibrational energy      14627.6 (Joules/Mol)
                                    3.49608 (Kcal/Mol)
 Vibrational temperatures:   3518.59
          (Kelvin)

 Zero-point correction=                           0.005571 (Hartree/Particle)
 Thermal correction to Energy=                    0.008328
 Thermal correction to Enthalpy=                  0.009431
 Thermal correction to Gibbs Free Energy=        -0.016568
 Sum of electronic and zero-point Energies=           -109.537630
 Sum of electronic and thermal Energies=              -109.534874
 Sum of electronic and thermal Enthalpies=            -109.533771
 Sum of electronic and thermal Free Energies=         -109.559770

                     E (Thermal)             CV                S
                      KCal/Mol        Cal/Mol-Kelvin    Cal/Mol-Kelvin
 Total                    5.226              4.976             46.860
 Electronic               0.000              0.000              0.000
 Translational            1.038              2.981             36.694
 Rotational               0.692              1.987             10.165
 Vibrational              3.496              0.008              0.001

 Optimization completed.
    -- Stationary point found.
 Normal termination of Gaussian 09 at Tue Aug 20 17:32:52 2019.
