 Gaussian 09, Revision B.01,
 Gaussian 09:  EM64L-G09RevB.01 12-Aug-2010

 ----------------------------------------------------------------------
 #p scrf=(cpcm,solvent=water) opt Temperature=348.15 int=(grid=ultrafin
 e) CPHF=(grid=fine) freq rb3lyp/aug-cc-pvdz
 ----------------------------------------------------------------------

 ---------------------------------
 o-NO2-Ph-OTf-RB3LYP-aug-cc-pVDZ--
 ---------------------------------
 Symbolic Z-matrix:
 Charge =  0 Multiplicity = 1

 SCF Done:  E(RB3LYP) =  -1397.70337413     A.U. after   16 cycles
 SCF Done:  E(RB3LYP) =  -1397.70304570     A.U. after   13 cycles
 SCF Done:  E(RB3LYP) =  -1397.70344945     A.U. after   12 cycles
 SCF Done:  E(RB3LYP) =  -1397.70191449     A.U. after   14 cycles
 SCF Done:  E(RB3LYP) =  -1397.70358657     A.U. after   13 cycles
 SCF Done:  E(RB3LYP) =  -1397.70363140     A.U. after   12 cycles
 SCF Done:  E(RB3LYP) =  -1397.70364333     A.U. after   12 cycles
 SCF Done:  E(RB3LYP) =  -1397.70365073     A.U. after   12 cycles
 SCF Done:  E(RB3LYP) =  -1397.70368219     A.U. after   13 cycles
 SCF Done:  E(RB3LYP) =  -1397.70359530     A.U. after   13 cycles
 SCF Done:  E(RB3LYP) =  -1397.70371864     A.U. after   14 cycles
 SCF Done:  E(RB3LYP) =  -1397.70338935     A.U. after   16 cycles
 SCF Done:  E(RB3LYP) =  -1397.70371945     A.U. after   15 cycles
 SCF Done:  E(RB3LYP) =  -1397.70347230     A.U. after   13 cycles
 SCF Done:  E(RB3LYP) =  -1397.69457376     A.U. after   17 cycles
 SCF Done:  E(RB3LYP) =  -1397.70372415     A.U. after   17 cycles
 SCF Done:  E(RB3LYP) =  -1397.70372728     A.U. after   12 cycles
 SCF Done:  E(RB3LYP) =  -1397.70372963     A.U. after   10 cycles
 SCF Done:  E(RB3LYP) =  -1397.70372991     A.U. after    9 cycles
 Optimization completed.
    -- Stationary point found.
 Normal termination of Gaussian 09 at Tue Aug 20 22:39:15 2019.

 ----------------------------------------------------------------------
 #P Geom=AllCheck Guess=TCheck SCRF=Check GenChk RB3LYP/Aug-CC-pVDZ Fre
 q
 ----------------------------------------------------------------------

 o-NO2-Ph-OTf-RB3LYP-aug-cc-pVDZ--
 ---------------------------------
 Redundant internal coordinates taken from checkpoint file:
 /home/ubuntu/g09/Gau-1868.chk
 Charge =  0 Multiplicity = 1

                         Standard orientation:
 ---------------------------------------------------------------------
 Center     Atomic      Atomic             Coordinates (Angstroms)
 Number     Number       Type             X           Y           Z
 ---------------------------------------------------------------------
      1          6           0       -3.057390   -2.106992   -0.299946
      2          6           0       -1.693228   -1.884155   -0.507784
      3          6           0       -1.184094   -0.589986   -0.432681
      4          6           0       -2.042440    0.482402   -0.135153
      5          6           0       -3.401467    0.255244    0.092901
      6          6           0       -3.909435   -1.040308    0.001039
      7          1           0       -3.451245   -3.119846   -0.371622
      8          1           0       -1.014613   -2.704925   -0.731020
      9         16           0        1.214331   -0.545226    0.636424
     10          6           0        2.730355    0.117216   -0.321589
     11          8           0        0.179532   -0.393118   -0.678433
     12          8           0        0.833664    0.417997    1.686950
     13          8           0        1.443139   -1.966211    0.953208
     14          9           0        2.941688   -0.641382   -1.392754
     15          9           0        2.516393    1.378146   -0.677945
     16          9           0        3.770737    0.041815    0.508016
     17          1           0       -4.972196   -1.213358    0.161974
     18          7           0       -1.567932    1.870630   -0.079947
     19          8           0       -2.112017    2.621140    0.728490
     20          8           0       -0.679513    2.215188   -0.855218
     21          1           0       -4.047338    1.099611    0.320972
 ---------------------------------------------------------------------

 SCF Done:  E(RB3LYP) =  -1397.70372990     A.U. after    2 cycles

 The electronic state is 1-A.
 Alpha  occ. eigenvalues --  -89.18183 -24.79786 -24.79770 -24.79760 -19.24967
 Alpha  occ. eigenvalues --  -19.20875 -19.20842 -19.20756 -19.20681 -14.59678
 Alpha  occ. eigenvalues --  -10.50857 -10.30378 -10.27883 -10.23479 -10.22979
 Alpha  occ. eigenvalues --  -10.22894 -10.22480  -8.21067  -6.17500  -6.17323
 Alpha  occ. eigenvalues --   -6.17232  -1.37831  -1.29227  -1.29147  -1.25846
 Alpha  occ. eigenvalues --   -1.18450  -1.09877  -1.08397  -1.06175  -0.91123
 Alpha  occ. eigenvalues --   -0.83236  -0.81394  -0.77868  -0.73345  -0.71122
 Alpha  occ. eigenvalues --   -0.66127  -0.65316  -0.65139  -0.63659  -0.61812
 Alpha  occ. eigenvalues --   -0.58628  -0.57099  -0.55735  -0.54597  -0.53017
 Alpha  occ. eigenvalues --   -0.52608  -0.51973  -0.51752  -0.50668  -0.49782
 Alpha  occ. eigenvalues --   -0.49032  -0.48792  -0.47688  -0.46620  -0.46514
 Alpha  occ. eigenvalues --   -0.42439  -0.41893  -0.40257  -0.39338  -0.38970
 Alpha  occ. eigenvalues --   -0.37468  -0.36517  -0.35165  -0.34207  -0.33708
 Alpha  occ. eigenvalues --   -0.32706  -0.29520  -0.29134
 Alpha virt. eigenvalues --   -0.11668  -0.06539  -0.04052  -0.02929  -0.02204
 Alpha virt. eigenvalues --   -0.00798   0.00195   0.00778   0.01908   0.02371
 Alpha virt. eigenvalues --    0.02614   0.03533   0.04037   0.04400   0.05184

 Mulliken atomic charges:
              1
     1  C    0.773218
     2  C    1.134086
     3  C    0.331514
     4  C    0.244889
     5  C    1.365439
     6  C    0.512528
     7  H   -0.702216
     8  H   -0.857948
     9  S    2.281915
    10  C    1.124768
    11  O   -0.945208
    12  O   -0.904497
    13  O   -0.900178
    14  F   -0.414179
    15  F   -0.415575
    16  F   -0.388336
    17  H   -0.705316
    18  N    0.716821
    19  O   -0.712223
    20  O   -0.697614
    21  H   -0.841886
 Sum of Mulliken atomic charges =   0.00000

 Dipole moment (field-independent basis, Debye):
    X=             -3.9988    Y=             -5.0118    Z=             -2.2931  Tot=              6.8093
 Quadrupole moment (field-independent basis, Debye-Ang):
   XX=            -77.5061   YY=           -108.5715   ZZ=           -107.9973
   XY=             12.6353   XZ=             -0.2940   YZ=              1.7794

  Exact polarizability: 218.910  12.079 211.766 -13.626  10.718 135.072
 Approx polarizability: 248.153   6.097 255.494 -29.832  17.738 174.073

                     1                      2                      3
                     A                      A                      A
 Frequencies --    22.0842                28.2124                44.8584
 Red. masses --    12.9598                13.4115                14.0141
 Frc consts  --     0.0037                 0.0063                 0.0166
 IR Inten    --     2.4370                 1.6277                 0.9747

                     4                      5                      6
                     A                      A                      A
 Frequencies --    50.6089                72.4455               119.2256
 Red. masses --    13.1932                 9.4437                 7.1073
 Frc consts  --     0.0199                 0.0292                 0.0595
 IR Inten    --     1.3498                 0.9313                 2.5915

                     7                      8                      9
                     A                      A                      A
 Frequencies --   136.5431               161.4569               187.6716
 Red. masses --     6.8322                16.6778                14.6591
 Frc consts  --     0.0751                 0.2562                 0.3042
 IR Inten    --     1.7060                 4.2375                 6.0949

                    10                     11                     12
                     A                      A                      A
 Frequencies --   240.8697               244.3386               284.1040
 Red. masses --    14.5179                 7.0130                10.7808
 Frc consts  --     0.4963                 0.2467                 0.5127
 IR Inten    --    16.7976                 0.5988                 3.8271

                    13                     14                     15
                     A                      A                      A
 Frequencies --   291.7488               343.3918               377.8856
 Red. masses --    13.6835                11.1825                11.0176
 Frc consts  --     0.6862                 0.7769                 0.9270
 IR Inten    --     2.4234                 3.0110                 4.3789

                    16                     17                     18
                     A                      A                      A
 Frequencies --   414.7063               432.6175               459.2222
 Red. masses --     5.4584                 7.7118                 8.5915
 Frc consts  --     0.5531                 0.8504                 1.0675
 IR Inten    --     7.1811                10.1964                34.1492

                    19                     20                     21
                     A                      A                      A
 Frequencies --   506.1128               514.3838               537.9527
 Red. masses --     8.3913                 8.8212                17.7604
 Frc consts  --     1.2664                 1.3752                 3.0282
 IR Inten    --    61.3436                94.5471                 0.8351

                    22                     23                     24
                     A                      A                      A
 Frequencies --   547.6125               576.6803               615.6811
 Red. masses --    12.6713                 5.5410                 6.1920
 Frc consts  --     2.2388                 1.0857                 1.3829
 IR Inten    --    38.5023                 8.2422                86.7576

                    25                     26                     27
                     A                      A                      A
 Frequencies --   650.8114               678.0807               711.4471
 Red. masses --     7.8327                 8.6338                 3.7113
 Frc consts  --     1.9547                 2.3389                 1.1068
 IR Inten    --   131.8663               199.3634                15.2189

                    28                     29                     30
                     A                      A                      A
 Frequencies --   752.4393               762.8674               791.7888
 Red. masses --    11.8928                 2.6054                 2.0328
 Frc consts  --     3.9671                 0.8934                 0.7509
 IR Inten    --    36.8955                76.7863                39.4463

                    31                     32                     33
                     A                      A                      A
 Frequencies --   822.3432               870.5824               888.9112
 Red. masses --     8.7742                 8.7674                 1.5631
 Frc consts  --     3.4959                 3.9151                 0.7277
 IR Inten    --   141.0103               117.1272                 2.2007

                    34                     35                     36
                     A                      A                      A
 Frequencies --   976.1065              1015.4143              1034.5159
 Red. masses --     1.3783                 1.3584                15.1006
 Frc consts  --     0.7738                 0.8252                 9.5218
 IR Inten    --     4.3035                 0.4322               382.8385

                    37                     38                     39
                     A                      A                      A
 Frequencies --  1055.1346              1086.9982              1142.5039
 Red. masses --     2.2092                 4.2680                 5.5485
 Frc consts  --     1.4491                 2.9712                 4.2672
 IR Inten    --     1.7057               158.9749               227.3774

                    40                     41                     42
                     A                      A                      A
 Frequencies --  1159.3786              1175.5735              1182.3885
 Red. masses --     1.7461                 1.2676                 6.9333
 Frc consts  --     1.3828                 1.0321                 5.7110
 IR Inten    --    23.1401                25.9600               320.8368

                    43                     44                     45
                     A                      A                      A
 Frequencies --  1197.3064              1205.8409              1270.3052
 Red. masses --    12.4964                 3.5161                16.2762
 Frc consts  --    10.5547                 3.0123                15.4746
 IR Inten    --   285.3590                99.5459               379.7026

                    46                     47                     48
                     A                      A                      A
 Frequencies --  1278.0117              1356.3097              1381.9352
 Red. masses --     1.5487                 8.6539                14.2383
 Frc consts  --     1.4903                 9.3795                16.0208
 IR Inten    --    37.3914                14.7989               533.6272

                    49                     50                     51
                     A                      A                      A
 Frequencies --  1462.5740              1493.4615              1564.1931
 Red. masses --     2.3945                 2.6540                11.6193
 Frc consts  --     3.0179                 3.4877                16.7499
 IR Inten    --     7.4604                49.5217               550.6964

                    52                     53                     54
                     A                      A                      A
 Frequencies --  1625.1679              1630.5610              3202.7572
 Red. masses --     6.6759                 7.2055                 1.0879
 Frc consts  --    10.3885                11.2873                 6.5749
 IR Inten    --    39.5540                69.0466                 2.4733

                    55                     56                     57
                     A                      A                      A
 Frequencies --  3214.1995              3223.2682              3230.7799
 Red. masses --     1.0924                 1.0960                 1.0955
 Frc consts  --     6.6496                 6.7088                 6.7372
 IR Inten    --     6.0236                 0.2403                 2.4269

 - Thermochemistry -
 -------------------
 Temperature   348.150 Kelvin.  Pressure   1.00000 Atm.
 Atom     1 has atomic number  6 and mass  12.00000

 Molecular mass:   270.97623 amu.
 Principal axes and moments of inertia in atomic units:
                           1         2         3
     Eigenvalues --  2335.910345706.259386900.33968
           X            0.99989   0.01452   0.00304
           Y           -0.01455   0.99985   0.00984
           Z           -0.00290  -0.00988   0.99995
 This molecule is an asymmetric top.
 Rotational symmetry number  1.
 Warning -- assumption of classical behavior for rotation
           may cause significant error
 Rotational temperatures (Kelvin)      0.03708     0.01518     0.01255
 Rotational constants (GHZ):           0.77261     0.31627     0.26154
 Zero-point vibrational energy     312849.6 (Joules/Mol)
                                   74.77285 (Kcal/Mol)
 Warning -- explicit consideration of  27 degrees of freedom as
           vibrations may cause significant error
 Vibrational temperatures:     31.77    40.59    64.54    72.81   104.23
          (Kelvin)            171.54   196.45   232.30   270.02   346.56
                              351.55   408.76   419.76   494.06   543.69
                              596.67   622.44   660.72   728.18   740.08
                              773.99   787.89   829.71   885.83   936.37
                              975.61  1023.61  1082.59  1097.59  1139.21
                             1183.17  1252.57  1278.94  1404.40  1460.95
                             1488.44  1518.10  1563.95  1643.81  1668.09
                             1691.39  1701.19  1722.65  1734.93  1827.68
                             1838.77  1951.42  1988.29  2104.32  2148.76
                             2250.52  2338.25  2346.01  4608.05  4624.51
                             4637.56  4648.37

 Zero-point correction=                           0.119158 (Hartree/Particle)
 Thermal correction to Energy=                    0.139129
 Thermal correction to Enthalpy=                  0.140232
 Thermal correction to Gibbs Free Energy=         0.062797
 Sum of electronic and zero-point Energies=          -1397.584572
 Sum of electronic and thermal Energies=             -1397.564601
 Sum of electronic and thermal Enthalpies=           -1397.563498
 Sum of electronic and thermal Free Energies=        -1397.640933

                     E (Thermal)             CV                S
                      KCal/Mol        Cal/Mol-Kelvin    Cal/Mol-Kelvin
 Total                   87.305             61.282            139.569
 Electronic               0.000              0.000              0.000
 Translational            1.038              2.981             43.460
 Rotational               1.038              2.981             33.348
 Vibrational             85.229             55.321             62.761
 Vibration     1          0.692              1.986              6.745
 Vibration     2          0.693              1.985              6.259
 Vibration     3          0.694              1.982              5.339
 Vibration     4          0.694              1.980              5.100
 Vibration     5          0.697              1.972              4.391
 Vibration     6          0.706              1.947              3.414
 Vibration     7          0.710              1.935              3.150
 Vibration     8          0.717              1.915              2.828
 Vibration     9          0.726              1.891              2.541
 Vibration    10          0.748              1.831              2.076
 Vibration    11          0.750              1.827              2.050
 Vibration    12          0.770              1.774              1.779
 Vibration    13          0.774              1.763              1.732
 Vibration    14          0.804              1.685              1.450
 Vibration    15          0.827              1.628              1.292
 Vibration    16          0.853              1.565              1.143
 Vibration    17          0.867              1.533              1.078
 Vibration    18          0.888              1.485              0.988
 Vibration    19          0.927              1.397              0.848
 Vibration    20          0.935              1.382              0.825
 Vibration    21          0.956              1.337              0.764
 Vibration    22          0.965              1.319              0.740
 Vibration    23          0.992              1.264              0.674
 Vibration    24          1.030              1.190              0.593
 Vibration    25          1.066              1.124              0.529
 Vibration    26          1.095              1.073              0.484
 Vibration    27          1.131              1.012              0.434

 Normal termination of Gaussian 09 at Tue Aug 20 23:53:37 2019.
