 Gaussian 09, Revision B.01,
 Gaussian 09:  EM64L-G09RevB.01 12-Aug-2010

 ----------------------------------------------------------------------
 #p opt=(cartesian,tight,maxcycles=2000) scf=(tight,maxcycles=700) NoSy
 mm scrf=(cpcm,solvent=water) Temperature=348.15 int=(grid=ultrafine) C
 PHF=(grid=fine) freq rb3lyp/aug-cc-pvdz
 ----------------------------------------------------------------------

 ----------------------------------
 p-CH3O-Ph-OTf-RB3LYP-aug-cc-pVDZ--
 ----------------------------------
 Symbolic Z-matrix:
 Charge =  0 Multiplicity = 1

 SCF Done:  E(RB3LYP) =  -1307.71445510     A.U. after   14 cycles
 SCF Done:  E(RB3LYP) =  -1307.71462222     A.U. after   10 cycles
 SCF Done:  E(RB3LYP) =  -1307.71464404     A.U. after   11 cycles
 SCF Done:  E(RB3LYP) =  -1307.71465544     A.U. after   10 cycles
 SCF Done:  E(RB3LYP) =  -1307.71465558     A.U. after   11 cycles
 SCF Done:  E(RB3LYP) =  -1307.71466342     A.U. after   10 cycles
 SCF Done:  E(RB3LYP) =  -1307.71466425     A.U. after   11 cycles
 SCF Done:  E(RB3LYP) =  -1307.71467286     A.U. after   10 cycles
 SCF Done:  E(RB3LYP) =  -1307.71466926     A.U. after   11 cycles
 SCF Done:  E(RB3LYP) =  -1307.71467415     A.U. after   11 cycles
 SCF Done:  E(RB3LYP) =  -1307.71467787     A.U. after    8 cycles
 SCF Done:  E(RB3LYP) =  -1307.71467787     A.U. after    6 cycles
 SCF Done:  E(RB3LYP) =  -1307.71467787     A.U. after    6 cycles
 SCF Done:  E(RB3LYP) =  -1307.71467787     A.U. after    6 cycles
 SCF Done:  E(RB3LYP) =  -1307.71467787     A.U. after    6 cycles
 SCF Done:  E(RB3LYP) =  -1307.71467787     A.U. after    5 cycles
 SCF Done:  E(RB3LYP) =  -1307.71467787     A.U. after    5 cycles
 SCF Done:  E(RB3LYP) =  -1307.71467787     A.U. after    6 cycles
 SCF Done:  E(RB3LYP) =  -1307.71467787     A.U. after    5 cycles
 Optimization completed.
    -- Stationary point found.
 Normal termination of Gaussian 09 at Thu Aug 22 03:04:25 2019.

 ----------------------------------------------------------------------
 #P Geom=AllCheck Guess=TCheck SCRF=Check GenChk RB3LYP/Aug-CC-pVDZ Fre
 q
 ----------------------------------------------------------------------

 ----------------------------------
 No Z-matrix found on checkpoint file.
 Cartesian coordinates read from the checkpoint file:
 /home/ubuntu/g09/Gau-9618.chk
 Charge =  0 Multiplicity = 1

                          Input orientation:
 ---------------------------------------------------------------------
 Center     Atomic      Atomic             Coordinates (Angstroms)
 Number     Number       Type             X           Y           Z
 ---------------------------------------------------------------------
      1          6           0        2.837966   -0.972798   -0.264011
      2          6           0        1.449331   -1.001952   -0.433682
      3          6           0        0.735135    0.190076   -0.410276
      4          6           0        1.364994    1.422188   -0.222598
      5          6           0        2.745571    1.450981   -0.052647
      6          6           0        3.489145    0.256212   -0.070318
      7          1           0        3.390171   -1.908152   -0.288076
      8          1           0        0.932347   -1.946799   -0.590924
      9          1           0        0.783307    2.342183   -0.219959
     10          1           0        3.266289    2.396643    0.091053
     11          8           0       -0.662358    0.160489   -0.666500
     12         16           0       -1.664296    0.053491    0.655833
     13          8           0       -1.749786    1.348200    1.361243
     14          8           0       -1.419865   -1.193102    1.408973
     15          6           0       -3.242837   -0.165167   -0.390866
     16          9           0       -3.409988    0.894091   -1.180139
     17          9           0       -3.148690   -1.273883   -1.121654
     18          9           0       -4.266552   -0.265900    0.459701
     19          8           0        4.832443    0.394362    0.103640
     20          6           0        5.645141   -0.785778    0.090867
     21          1           0        5.573637   -1.301502   -0.877143
     22          1           0        6.670027   -0.438903    0.247962
     23          1           0        5.357815   -1.469809    0.901824
 ---------------------------------------------------------------------

 SCF Done:  E(RB3LYP) =  -1307.71467787     A.U. after    1 cycles

 Alpha  occ. eigenvalues --  -89.17401 -24.79350 -24.79344 -24.79333 -19.23920
 Alpha  occ. eigenvalues --  -19.19885 -19.19830 -19.19294 -10.50201 -10.26801
 Alpha  occ. eigenvalues --  -10.26796 -10.24244 -10.21513 -10.21479 -10.20766
 Alpha  occ. eigenvalues --  -10.20643  -8.20276  -6.16687  -6.16537  -6.16464
 Alpha  occ. eigenvalues --   -1.37313  -1.28719  -1.28660  -1.17534  -1.08352
 Alpha  occ. eigenvalues --   -1.08253  -1.05249  -0.87763  -0.80254  -0.77678
 Alpha  occ. eigenvalues --   -0.76613  -0.72353  -0.69331  -0.65099  -0.64843
 Alpha  occ. eigenvalues --   -0.64053  -0.63195  -0.60010  -0.56553  -0.54433
 Alpha  occ. eigenvalues --   -0.52634  -0.51927  -0.51587  -0.51102  -0.50326
 Alpha  occ. eigenvalues --   -0.48589  -0.48355  -0.47731  -0.47401  -0.46560
 Alpha  occ. eigenvalues --   -0.46140  -0.44774  -0.43693  -0.41972  -0.40569
 Alpha  occ. eigenvalues --   -0.39939  -0.38650  -0.37877  -0.36606  -0.35871
 Alpha  occ. eigenvalues --   -0.34800  -0.33701  -0.33379  -0.27878  -0.24288
 Alpha virt. eigenvalues --   -0.04441  -0.03624  -0.01903  -0.01256  -0.00467
 Alpha virt. eigenvalues --    0.00297   0.00638   0.01666   0.01841   0.02265
 Alpha virt. eigenvalues --    0.02825   0.03131   0.03989   0.04206   0.05016

 Mulliken atomic charges:
              1
     1  C    1.553796
     2  C    0.685925
     3  C   -0.151307
     4  C    0.884968
     5  C    1.484298
     6  C    0.270861
     7  H   -1.191604
     8  H   -0.844443
     9  H   -0.833643
    10  H   -0.905797
    11  O   -0.949398
    12  S    2.272901
    13  O   -0.909877
    14  O   -0.907537
    15  C    1.131796
    16  F   -0.418439
    17  F   -0.425410
    18  F   -0.391416
    19  O   -0.669337
    20  C    1.228611
    21  H   -0.183685
    22  H   -0.547041
    23  H   -0.184222
 Sum of Mulliken atomic charges =   0.00000

 Dipole moment (field-independent basis, Debye):
    X=              3.9826    Y=             -1.7081    Z=             -2.5188  Tot=              5.0123
 Quadrupole moment (field-independent basis, Debye-Ang):
   XX=            -77.9886   YY=            -94.7879   ZZ=           -104.4964
   XY=             -7.6549   XZ=              3.8044   YZ=              0.5552

  Exact polarizability: 244.068  -4.868 186.146   3.101   4.450 134.651
 Approx polarizability: 254.355  -3.367 230.645   6.841   5.814 158.567

                     1                      2                      3
                     A                      A                      A
 Frequencies --    12.3638                32.4945                45.2839
 Red. masses --     7.0555                 7.8527                 7.5592
 Frc consts  --     0.0006                 0.0049                 0.0091
 IR Inten    --     0.8811                 0.6197                 0.7016

                     4                      5                      6
                     A                      A                      A
 Frequencies --    50.8054                95.0347               122.3634
 Red. masses --     7.9962                 4.3441                 7.3003
 Frc consts  --     0.0122                 0.0231                 0.0644
 IR Inten    --     0.5799                 2.3817                 2.8101

                     7                      8                      9
                     A                      A                      A
 Frequencies --   163.3584               168.6674               211.6973
 Red. masses --    14.1598                 4.9826                 4.9124
 Frc consts  --     0.2226                 0.0835                 0.1297
 IR Inten    --     5.1140                 7.1539                 1.1400

                    10                     11                     12
                     A                      A                      A
 Frequencies --   240.3187               249.7903               282.5469
 Red. masses --    14.8661                 1.1987                 6.2728
 Frc consts  --     0.5059                 0.0441                 0.2950
 IR Inten    --    11.7110                 1.1102                 2.0604

                    13                     14                     15
                     A                      A                      A
 Frequencies --   289.9822               343.0088               354.3468
 Red. masses --    13.4708                 6.1307                 8.6200
 Frc consts  --     0.6674                 0.4250                 0.6377
 IR Inten    --     2.3138                 2.2417                 1.4974

                    16                     17                     18
                     A                      A                      A
 Frequencies --   419.9310               433.1876               455.1149
 Red. masses --     7.4464                 3.1774                11.8453
 Frc consts  --     0.7737                 0.3513                 1.4456
 IR Inten    --    15.7192                 2.9251                48.4113

                    19                     20                     21
                     A                      A                      A
 Frequencies --   463.5623               511.8400               520.3521
 Red. masses --     8.8222                 5.5504                 3.2772
 Frc consts  --     1.1170                 0.8567                 0.5228
 IR Inten    --    31.0463                46.1111               101.5620

                    22                     23                     24
                     A                      A                      A
 Frequencies --   538.0197               538.9347               603.3153
 Red. masses --    17.6472                 8.9334                 6.7510
 Frc consts  --     3.0097                 1.5288                 1.4478
 IR Inten    --     1.6855                27.2121               122.6361

                    25                     26                     27
                     A                      A                      A
 Frequencies --   642.1506               653.7622               728.1990
 Red. masses --     7.0183                 7.6066                 3.9481
 Frc consts  --     1.7051                 1.9155                 1.2335
 IR Inten    --     5.1389                84.8788                 8.8255

                    28                     29                     30
                     A                      A                      A
 Frequencies --   739.6722               771.7505               806.3615
 Red. masses --    10.5675                 8.4770                 1.2487
 Frc consts  --     3.4064                 2.9747                 0.4784
 IR Inten    --   101.2039               251.3835                 1.7728

                    31                     32                     33
                     A                      A                      A
 Frequencies --   840.5623               846.9995               946.6119
 Red. masses --     5.5841                 1.9425                 1.3659
 Frc consts  --     2.3246                 0.8211                 0.7211
 IR Inten    --   100.8827               110.9784                 0.0864

                    34                     35                     36
                     A                      A                      A
 Frequencies --   968.1121              1012.0640              1037.7594
 Red. masses --     1.3474                 2.8717                 9.2567
 Frc consts  --     0.7441                 1.7330                 5.8736
 IR Inten    --     0.1963                13.8057               311.2717

                    37                     38                     39
                     A                      A                      A
 Frequencies --  1039.7335              1117.1658              1132.4010
 Red. masses --     9.8917                 1.2458                 4.5014
 Frc consts  --     6.3004                 0.9161                 3.4009
 IR Inten    --   164.7938                33.0892               336.7936

                    40                     41                     42
                     A                      A                      A
 Frequencies --  1156.3650              1160.9526              1173.0799
 Red. masses --     1.2734                 2.0933                 5.1730
 Frc consts  --     1.0032                 1.6623                 4.1942
 IR Inten    --     1.5428               128.6443               288.5441

                    43                     44                     45
                     A                      A                      A
 Frequencies --  1184.0780              1186.6134              1193.0454
 Red. masses --    13.1123                 2.3712                 1.4027
 Frc consts  --    10.8315                 1.9672                 1.1763
 IR Inten    --   310.1585                70.4672                27.3406

                    46                     47                     48
                     A                      A                      A
 Frequencies --  1257.5554              1267.0773              1307.1075
 Red. masses --    20.1810                 4.7028                 1.2933
 Frc consts  --    18.8038                 4.4485                 1.3019
 IR Inten    --   427.6248               348.7626                 1.4530

                    49                     50                     51
                     A                      A                      A
 Frequencies --  1353.0110              1440.6678              1447.7512
 Red. masses --     9.7688                 3.1173                 1.1805
 Frc consts  --    10.5365                 3.8120                 1.4579
 IR Inten    --    25.0269                 3.7761                29.6076

                    52                     53                     54
                     A                      A                      A
 Frequencies --  1465.5984              1472.9948              1516.1732
 Red. masses --     1.0439                 1.0949                 2.4494
 Frc consts  --     1.3211                 1.3997                 3.3175
 IR Inten    --    13.0235                36.8257               330.4193

                    55                     56                     57
                     A                      A                      A
 Frequencies --  1624.8065              1638.4335              3025.6857
 Red. masses --     6.8974                 6.6801                 1.0332
 Frc consts  --    10.7285                10.5655                 5.5729
 IR Inten    --    42.4876                50.9492                68.3117

                    58                     59                     60
                     A                      A                      A
 Frequencies --  3099.3848              3162.0368              3200.4594
 Red. masses --     1.1071                 1.1017                 1.0892
 Frc consts  --     6.2657                 6.4899                 6.5736
 IR Inten    --    43.1947                23.3537                 6.2593

                    61                     62                     63
                     A                      A                      A
 Frequencies --  3210.2897              3215.7392              3231.4925
 Red. masses --     1.0910                 1.0962                 1.0933
 Frc consts  --     6.6249                 6.6786                 6.7268
 IR Inten    --     2.9455                 1.2795                 2.2928

 - Thermochemistry -
 -------------------
 Temperature   348.150 Kelvin.  Pressure   1.00000 Atm.
 Atom     1 has atomic number  6 and mass  12.00000

 Molecular mass:   256.00172 amu.
 Principal axes and moments of inertia in atomic units:
                           1         2         3
     Eigenvalues --  1261.584078821.005049048.43332
           X            0.99992  -0.01236  -0.00230
           Y            0.01179   0.98537  -0.17003
           Z            0.00436   0.16999   0.98544
 This molecule is an asymmetric top.
 Rotational symmetry number  1.
 Warning -- assumption of classical behavior for rotation
           may cause significant error
 Rotational temperatures (Kelvin)      0.06865     0.00982     0.00957
 Rotational constants (GHZ):           1.43054     0.20460     0.19945
 Zero-point vibrational energy     391298.6 (Joules/Mol)
                                   93.52262 (Kcal/Mol)
 Warning -- explicit consideration of  26 degrees of freedom as
           vibrations may cause significant error
 Vibrational temperatures:     17.79    46.75    65.15    73.10   136.73
          (Kelvin)            176.05   235.04   242.67   304.58   345.76
                              359.39   406.52   417.22   493.51   509.83
                              604.19   623.26   654.81   666.96   736.42
                              748.67   774.09   775.41   868.04   923.91
                              940.62  1047.71  1064.22  1110.38  1160.17
                             1209.38  1218.64  1361.96  1392.90  1456.13
                             1493.10  1495.94  1607.35  1629.27  1663.75
                             1670.35  1687.80  1703.62  1707.27  1716.52
                             1809.34  1823.04  1880.63  1946.68  2072.80
                             2082.99  2108.67  2119.31  2181.43  2337.73
                             2357.34  4353.28  4459.32  4549.46  4604.74
                             4618.89  4626.73  4649.39

 Zero-point correction=                           0.149038 (Hartree/Particle)
 Thermal correction to Energy=                    0.169080
 Thermal correction to Enthalpy=                  0.170182
 Thermal correction to Gibbs Free Energy=         0.092685
 Sum of electronic and zero-point Energies=          -1307.565640
 Sum of electronic and thermal Energies=             -1307.545598
 Sum of electronic and thermal Enthalpies=           -1307.544496
 Sum of electronic and thermal Free Energies=        -1307.621993

                     E (Thermal)             CV                S
                      KCal/Mol        Cal/Mol-Kelvin    Cal/Mol-Kelvin
 Total                  106.099             62.294            139.681
 Electronic               0.000              0.000              0.000
 Translational            1.038              2.981             43.290
 Rotational               1.038              2.981             33.438
 Vibrational            104.023             56.333             62.952
 Vibration     1          0.692              1.987              7.898
 Vibration     2          0.693              1.984              5.979
 Vibration     3          0.694              1.981              5.320
 Vibration     4          0.694              1.980              5.093
 Vibration     5          0.701              1.962              3.857
 Vibration     6          0.707              1.945              3.363
 Vibration     7          0.718              1.913              2.805
 Vibration     8          0.720              1.909              2.744
 Vibration     9          0.735              1.865              2.315
 Vibration    10          0.748              1.832              2.081
 Vibration    11          0.752              1.820              2.010
 Vibration    12          0.769              1.776              1.788
 Vibration    13          0.773              1.766              1.742
 Vibration    14          0.804              1.685              1.452
 Vibration    15          0.811              1.667              1.398
 Vibration    16          0.857              1.555              1.124
 Vibration    17          0.867              1.532              1.076
 Vibration    18          0.885              1.492              1.001
 Vibration    19          0.892              1.477              0.974
 Vibration    20          0.932              1.387              0.832
 Vibration    21          0.940              1.371              0.809
 Vibration    22          0.956              1.337              0.764
 Vibration    23          0.957              1.335              0.762
 Vibration    24          1.018              1.213              0.618
 Vibration    25          1.057              1.140              0.544
 Vibration    26          1.069              1.118              0.524

 Normal termination of Gaussian 09 at Thu Aug 22 04:19:02 2019.
