 Gaussian 09, Revision B.01,
 Gaussian 09:  EM64L-G09RevB.01 12-Aug-2010

 ----------------------------------------------------------------------
 #p scrf=(cpcm,solvent=water) opt Temperature=348.15 SCF=(maxcycles=102
 4,conver=6) int=(grid=ultrafine) CPHF=(grid=fine) freq rb3lyp/aug-cc-p
 vdz
 ----------------------------------------------------------------------

 ---------------------------------
 p-NO2-Ph-OTs-RB3LYP-aug-cc-pVDZ--
 ---------------------------------
 Symbolic Z-matrix:
 Charge =  0 Multiplicity = 1

 SCF Done:  E(RB3LYP) =  -1331.05785245     A.U. after   20 cycles
 SCF Done:  E(RB3LYP) =  -1331.05819955     A.U. after   20 cycles
 SCF Done:  E(RB3LYP) =  -1331.05585840     A.U. after   21 cycles
 SCF Done:  E(RB3LYP) =  -1331.05821918     A.U. after    9 cycles
 SCF Done:  E(RB3LYP) =  -1331.05825912     A.U. after   11 cycles
 SCF Done:  E(RB3LYP) =  -1331.05826493     A.U. after   19 cycles
 SCF Done:  E(RB3LYP) =  -1331.05826666     A.U. after   11 cycles
 SCF Done:  E(RB3LYP) =  -1331.05826818     A.U. after   18 cycles
 SCF Done:  E(RB3LYP) =  -1331.05826930     A.U. after   17 cycles
 SCF Done:  E(RB3LYP) =  -1331.05827008     A.U. after   14 cycles
 SCF Done:  E(RB3LYP) =  -1331.05827028     A.U. after   15 cycles
 Optimization completed.
    -- Stationary point found.
 Normal termination of Gaussian 09 at Sat Nov 19 03:54:52 2016.

 ----------------------------------------------------------------------
 #P Geom=AllCheck Guess=TCheck SCRF=Check GenChk RB3LYP/Aug-CC-pVDZ Fre
 q
 ----------------------------------------------------------------------

 p-NO2-Ph-OTs-RB3LYP-aug-cc-pVDZ--
 ---------------------------------
 Redundant internal coordinates taken from checkpoint file:
 /home/ubuntu/g09/Gau-31585.chk
 Charge =  0 Multiplicity = 1

                         Standard orientation:
 ---------------------------------------------------------------------
 Center     Atomic      Atomic             Coordinates (Angstroms)
 Number     Number       Type             X           Y           Z
 ---------------------------------------------------------------------
      1          6           0       -3.363983    1.203889   -0.402594
      2          6           0       -1.971181    1.206401   -0.404008
      3          6           0       -1.286216   -0.012521   -0.356888
      4          6           0       -1.962597   -1.236076   -0.307534
      5          6           0       -3.355375   -1.243344   -0.305997
      6          6           0       -4.034110   -0.022010   -0.351988
      7          1           0       -1.415052    2.139882   -0.450614
      8          1           0       -1.399708   -2.166315   -0.280249
      9          1           0       -3.909684   -2.177022   -0.272130
     10          6           0        3.216912   -1.217185    0.142427
     11          6           0        4.504485   -1.236740   -0.388823
     12          6           0        5.183031   -0.043897   -0.702917
     13          6           0        4.536646    1.180755   -0.469043
     14          6           0        3.246250    1.228796    0.061917
     15          6           0        2.608176    0.023450    0.360372
     16          1           0        2.700069   -2.141979    0.389864
     17          1           0        4.992959   -2.196234   -0.560109
     18          1           0        5.048225    2.114343   -0.702148
     19          1           0        2.753196    2.180689    0.247031
     20         16           0        0.963148    0.067070    1.041798
     21          8           0        0.665337    1.381878    1.659366
     22          8           0        0.654664   -1.169555    1.799861
     23          8           0        0.104391   -0.011846   -0.438688
     24          6           0        6.576785   -0.091901   -1.274861
     25          1           0        7.262379   -0.604558   -0.585099
     26          1           0        6.589681   -0.653734   -2.219762
     27          1           0        6.966738    0.914494   -1.465348
     28          1           0       -3.924903    2.133376   -0.442464
     29          7           0       -5.501591   -0.027169   -0.352086
     30          8           0       -6.080620   -1.113282   -0.304342
     31          8           0       -6.088281    1.054858   -0.399136
 ---------------------------------------------------------------------

 SCF Done:  E(RB3LYP) =  -1331.05827029     A.U. after    2 cycles

 The electronic state is 1-A.
 Alpha  occ. eigenvalues --  -89.15617 -19.22077 -19.20115 -19.20115 -19.17893
 Alpha  occ. eigenvalues --  -19.17893 -14.58855 -10.28580 -10.26605 -10.24915
 Alpha  occ. eigenvalues --  -10.23109 -10.23107 -10.22677 -10.22593 -10.22571
 Alpha  occ. eigenvalues --  -10.22387 -10.22385 -10.21201 -10.21197 -10.19222
 Alpha  occ. eigenvalues --   -8.18441  -6.14901  -6.14734  -6.14557  -1.24987
 Alpha  occ. eigenvalues --   -1.15535  -1.07569  -1.06970  -1.03259  -0.90521
 Alpha  occ. eigenvalues --   -0.89480  -0.82780  -0.81151  -0.78964  -0.77841
 Alpha  occ. eigenvalues --   -0.74752  -0.71144  -0.67134  -0.65362  -0.63954
 Alpha  occ. eigenvalues --   -0.61858  -0.60057  -0.58109  -0.57063  -0.55369
 Alpha  occ. eigenvalues --   -0.54907  -0.54227  -0.51132  -0.49999  -0.49857
 Alpha  occ. eigenvalues --   -0.48005  -0.47915  -0.47558  -0.46028  -0.45984
 Alpha  occ. eigenvalues --   -0.45052  -0.43539  -0.43023  -0.40616  -0.40032
 Alpha  occ. eigenvalues --   -0.39939  -0.39026  -0.38271  -0.37247  -0.37209
 Alpha  occ. eigenvalues --   -0.36688  -0.34631  -0.34529  -0.33783  -0.33731
 Alpha  occ. eigenvalues --   -0.32178  -0.31545  -0.29113  -0.28735  -0.28376
 Alpha  occ. eigenvalues --   -0.27899
 Alpha virt. eigenvalues --   -0.11661  -0.06745  -0.04592  -0.04070  -0.03089
 Alpha virt. eigenvalues --   -0.01378  -0.00344   0.00229   0.00584   0.01193
 Alpha virt. eigenvalues --    0.01560   0.02030   0.02680   0.03064   0.03211

 Mulliken atomic charges:
              1
     1  C    1.400125
     2  C    0.914131
     3  C   -0.617775
     4  C    0.916251
     5  C    1.391422
     6  C    0.607794
     7  H   -0.871371
     8  H   -0.869537
     9  H   -0.852850
    10  C    0.588499
    11  C    1.153118
    12  C   -0.272711
    13  C    1.126586
    14  C    0.411287
    15  C    0.768562
    16  H   -1.005010
    17  H   -0.982208
    18  H   -0.987319
    19  H   -1.001577
    20  S    2.231593
    21  O   -0.976366
    22  O   -0.973280
    23  O   -0.926923
    24  C    0.989276
    25  H   -0.099328
    26  H   -0.091622
    27  H   -0.414797
    28  H   -0.853076
    29  N    0.768583
    30  O   -0.735669
    31  O   -0.735807
 Sum of Mulliken atomic charges =   0.00000

 Dipole moment (field-independent basis, Debye):
    X=             11.0101    Y=             -0.3039    Z=             -4.1981  Tot=             11.7873
 Quadrupole moment (field-independent basis, Debye-Ang):
   XX=           -131.3763   YY=           -113.9926   ZZ=           -131.7797
   XY=             -1.0036   XZ=             -8.9625   YZ=             -0.5680

  Exact polarizability: 411.827  -1.674 291.758 -23.781  -3.224 184.697
 Approx polarizability: 417.912  -1.984 382.868 -28.658  -5.612 215.150

                     1                      2                      3
                     A                      A                      A
 Frequencies --     9.0333                22.8595                30.3505
 Red. masses --     6.3687                 4.2287                 7.0916
 Frc consts  --     0.0003                 0.0013                 0.0038
 IR Inten    --     0.2616                 0.0088                 0.4361

                     4                      5                      6
                     A                      A                      A
 Frequencies --    39.5336                53.4292                57.0209
 Red. masses --     6.7939                 6.1275                 1.1104
 Frc consts  --     0.0063                 0.0103                 0.0021
 IR Inten    --     0.7469                 0.0583                 0.5646

                     7                      8                      9
                     A                      A                      A
 Frequencies --    69.4048               137.1881               148.2322
 Red. masses --     5.8757                 7.9809                 5.0000
 Frc consts  --     0.0167                 0.0885                 0.0647
 IR Inten    --     1.6413                 7.9924                 0.7897

                    10                     11                     12
                     A                      A                      A
 Frequencies --   156.9673               206.0818               267.4109
 Red. masses --     6.5285                11.1877                 7.0145
 Frc consts  --     0.0948                 0.2799                 0.2955
 IR Inten    --     1.8346                 4.6279                11.3505

                    13                     14                     15
                     A                      A                      A
 Frequencies --   280.4656               290.1872               315.9481
 Red. masses --     6.9059                 7.5731                 5.8996
 Frc consts  --     0.3201                 0.3757                 0.3470
 IR Inten    --     1.2554                 3.4164                14.6329

                    16                     17                     18
                     A                      A                      A
 Frequencies --   338.3483               390.0423               408.8677
 Red. masses --     3.6739                 7.9242                 4.7689
 Frc consts  --     0.2478                 0.7103                 0.4697
 IR Inten    --     2.5133                 4.6563                 1.6362

                    19                     20                     21
                     A                      A                      A
 Frequencies --   412.9490               422.8505               442.9893
 Red. masses --     2.8680                 2.9095                 7.1036
 Frc consts  --     0.2882                 0.3065                 0.8213
 IR Inten    --     0.1093                 0.0545                 4.2476

                    22                     23                     24
                     A                      A                      A
 Frequencies --   461.4275               488.2989               502.6469
 Red. masses --     9.8893                 3.7304                 4.6033
 Frc consts  --     1.2406                 0.5241                 0.6852
 IR Inten    --    24.4681                23.4193               121.0298

                    25                     26                     27
                     A                      A                      A
 Frequencies --   533.3764               542.5331               604.0061
 Red. masses --     6.7471                 5.4581                 5.2413
 Frc consts  --     1.1309                 0.9465                 1.1266
 IR Inten    --     0.1637               329.9584               110.7198

                    28                     29                     30
                     A                      A                      A
 Frequencies --   637.6322               640.0824               642.4824
 Red. masses --     7.2626                 6.8604                 6.7010
 Frc consts  --     1.7397                 1.6561                 1.6297
 IR Inten    --     0.1056                 3.6186                12.5595

                    31                     32                     33
                     A                      A                      A
 Frequencies --   677.3003               708.7189               715.1303
 Red. masses --     8.7507                 3.3022                 3.2527
 Frc consts  --     2.3651                 0.9772                 0.9801
 IR Inten    --   548.1709                47.0231                 2.3831

                    34                     35                     36
                     A                      A                      A
 Frequencies --   781.2668               811.8485               819.8578
 Red. masses --     5.5795                 5.0255                 1.7696
 Frc consts  --     2.0065                 1.9516                 0.7008
 IR Inten    --    40.7884                 3.8293                41.1130

                    37                     38                     39
                     A                      A                      A
 Frequencies --   821.1088               827.1665               838.8162
 Red. masses --     1.2444                 3.4558                 1.2478
 Frc consts  --     0.4943                 1.3931                 0.5173
 IR Inten    --     0.0289               130.5726                 0.1598

                    40                     41                     42
                     A                      A                      A
 Frequencies --   870.5667               880.4541               971.7661
 Red. masses --     8.8196                 2.0281                 1.2978
 Frc consts  --     3.9382                 0.9263                 0.7221
 IR Inten    --   184.7534                68.3716                 0.6560

                    43                     44                     45
                     A                      A                      A
 Frequencies --   981.9962               989.6531               995.1236
 Red. masses --     1.3900                 1.3693                 1.3780
 Frc consts  --     0.7897                 0.7901                 0.8040
 IR Inten    --     0.7432                 0.0878                 0.0460

                    46                     47                     48
                     A                      A                      A
 Frequencies --  1004.4822              1017.4922              1020.2921
 Red. masses --     1.5000                 2.8561                 3.5095
 Frc consts  --     0.8917                 1.7422                 2.1525
 IR Inten    --     7.9482                24.6531                39.2441

                    49                     50                     51
                     A                      A                      A
 Frequencies --  1051.7547              1056.1643              1108.0568
 Red. masses --     1.6188                 4.0983                 4.5940
 Frc consts  --     1.0550                 2.6935                 3.3233
 IR Inten    --    13.4784               111.6377               250.1405

                    52                     53                     54
                     A                      A                      A
 Frequencies --  1111.6109              1117.2601              1134.5605
 Red. masses --     1.2146                 2.8069                 1.2840
 Frc consts  --     0.8843                 2.0644                 0.9738
 IR Inten    --    16.8178               129.2230                17.2639

                    55                     56                     57
                     A                      A                      A
 Frequencies --  1163.8612              1196.9283              1203.3735
 Red. masses --     1.4143                 1.2735                 2.8973
 Frc consts  --     1.1287                 1.0750                 2.4720
 IR Inten    --   118.8360                68.5706               256.2418

                    58                     59                     60
                     A                      A                      A
 Frequencies --  1230.0541              1231.1994              1294.4720
 Red. masses --     4.3854                 6.2557                 1.2941
 Frc consts  --     3.9094                 5.5871                 1.2777
 IR Inten    --   130.1514               226.1212                 2.5517

                    61                     62                     63
                     A                      A                      A
 Frequencies --  1322.1114              1350.7849              1365.3657
 Red. masses --     1.2730                 7.8532                13.5036
 Frc consts  --     1.3110                 8.4425                14.8319
 IR Inten    --     2.2006                 4.1815               804.4689

                    64                     65                     66
                     A                      A                      A
 Frequencies --  1366.0288              1391.8204              1423.6415
 Red. masses --    10.1500                 1.2614                 2.2332
 Frc consts  --    11.1593                 1.4397                 2.6667
 IR Inten    --    66.5780                 2.7142                 7.5757

                    67                     68                     69
                     A                      A                      A
 Frequencies --  1432.0866              1450.5991              1465.3957
 Red. masses --     3.6907                 1.0416                 1.2266
 Frc consts  --     4.4596                 1.2914                 1.5519
 IR Inten    --     3.6924                10.8049                31.3846

                    70                     71                     72
                     A                      A                      A
 Frequencies --  1499.0331              1512.5102              1548.1936
 Red. masses --     2.4618                 2.3503                12.8501
 Frc consts  --     3.2594                 3.1678                18.1471
 IR Inten    --   100.7802                12.1196               484.8639

                    73                     74                     75
                     A                      A                      A
 Frequencies --  1613.8532              1626.1729              1631.0101
 Red. masses --     6.6118                 6.4377                 5.8262
 Frc consts  --    10.1460                10.0303                 9.1316
 IR Inten    --     2.8259               138.4693                71.4012

                    76                     77                     78
                     A                      A                      A
 Frequencies --  1640.7974              3035.8491              3094.5034
 Red. masses --     8.3052                 1.0375                 1.1000
 Frc consts  --    13.1738                 5.6339                 6.2061
 IR Inten    --    66.4810                23.0216                15.2115

                    79                     80                     81
                     A                      A                      A
 Frequencies --  3129.5094              3187.9763              3192.0298
 Red. masses --     1.1020                 1.0904                 1.0906
 Frc consts  --     6.3588                 6.5291                 6.5472
 IR Inten    --    25.3071                10.7827                10.1670

                    82                     83                     84
                     A                      A                      A
 Frequencies --  3218.7951              3220.0773              3221.8946
 Red. masses --     1.0940                 1.0945                 1.0915
 Frc consts  --     6.6782                 6.6866                 6.6756
 IR Inten    --     1.2935                 3.5935                 0.4129

                    85                     86                     87
                     A                      A                      A
 Frequencies --  3222.4810              3240.5141              3241.1297
 Red. masses --     1.0914                 1.0943                 1.0952
 Frc consts  --     6.6772                 6.7705                 6.7787
 IR Inten    --     0.1415                 2.7785                 5.2614

 - Thermochemistry -
 -------------------
 Temperature   348.150 Kelvin.  Pressure   1.00000 Atm.
 Atom     1 has atomic number  6 and mass  12.00000

 Molecular mass:   293.03579 amu.
 Principal axes and moments of inertia in atomic units:
                           1         2         3
     Eigenvalues --  1646.99168********************
           X            0.99997  -0.00066  -0.00762
           Y            0.00059   0.99996  -0.00912
           Z            0.00762   0.00912   0.99993
 This molecule is an asymmetric top.
 Rotational symmetry number  1.
 Warning -- assumption of classical behavior for rotation
           may cause significant error
 Rotational temperatures (Kelvin)      0.05259     0.00560     0.00550
 Rotational constants (GHZ):           1.09578     0.11676     0.11455
 Zero-point vibrational energy     585148.2 (Joules/Mol)
                                  139.85378 (Kcal/Mol)
 Warning -- explicit consideration of  33 degrees of freedom as
           vibrations may cause significant error
 Vibrational temperatures:     13.00    32.89    43.67    56.88    76.87
          (Kelvin)             82.04    99.86   197.38   213.27   225.84
                              296.51   384.74   403.53   417.51   454.58
                              486.81   561.18   588.27   594.14   608.39
                              637.36   663.89   702.55   723.20   767.41
                              780.58   869.03   917.41   920.93   924.39
                              974.48  1019.69  1028.91  1124.07  1168.07
                             1179.59  1181.39  1190.11  1206.87  1252.55
                             1266.78  1398.15  1412.87  1423.89  1431.76
                             1445.22  1463.94  1467.97  1513.24  1519.58
                             1594.24  1599.36  1607.49  1632.38  1674.53
                             1722.11  1731.38  1769.77  1771.42  1862.45
                             1902.22  1943.48  1964.45  1965.41  2002.52
                             2048.30  2060.45  2087.09  2108.37  2156.77
                             2176.16  2227.50  2321.97  2339.70  2346.66
                             2360.74  4367.90  4452.29  4502.66  4586.78
                             4592.61  4631.12  4632.97  4635.58  4636.43
                             4662.37  4663.26

 Zero-point correction=                           0.222871 (Hartree/Particle)
 Thermal correction to Energy=                    0.246698
 Thermal correction to Enthalpy=                  0.247801
 Thermal correction to Gibbs Free Energy=         0.159885
 Sum of electronic and zero-point Energies=          -1330.835399
 Sum of electronic and thermal Energies=             -1330.811572
 Sum of electronic and thermal Enthalpies=           -1330.810470
 Sum of electronic and thermal Free Energies=        -1330.898385

                     E (Thermal)             CV                S
                      KCal/Mol        Cal/Mol-Kelvin    Cal/Mol-Kelvin
 Total                  154.805             76.665            158.460
 Electronic               0.000              0.000              0.000
 Translational            1.038              2.981             43.693
 Rotational               1.038              2.981             34.812
 Vibrational            152.730             70.703             79.956
 Vibration     1          0.692              1.987              8.521
 Vibration     2          0.692              1.986              6.677
 Vibration     3          0.693              1.985              6.114
 Vibration     4          0.693              1.983              5.590
 Vibration     5          0.695              1.979              4.993
 Vibration     6          0.695              1.978              4.864
 Vibration     7          0.697              1.974              4.476
 Vibration     8          0.710              1.935              3.141
 Vibration     9          0.713              1.926              2.992
 Vibration    10          0.716              1.919              2.882
 Vibration    11          0.733              1.871              2.365
 Vibration    12          0.761              1.797              1.887
 Vibration    13          0.768              1.779              1.802
 Vibration    14          0.773              1.765              1.741
 Vibration    15          0.787              1.727              1.593
 Vibration    16          0.801              1.693              1.475
 Vibration    17          0.836              1.608              1.241
 Vibration    18          0.849              1.575              1.166
 Vibration    19          0.852              1.568              1.150
 Vibration    20          0.860              1.550              1.113
 Vibration    21          0.875              1.514              1.042
 Vibration    22          0.890              1.481              0.981
 Vibration    23          0.912              1.431              0.898
 Vibration    24          0.924              1.404              0.857
 Vibration    25          0.952              1.346              0.776
 Vibration    26          0.960              1.329              0.753
 Vibration    27          1.019              1.212              0.616
 Vibration    28          1.052              1.148              0.552
 Vibration    29          1.055              1.144              0.548
 Vibration    30          1.057              1.139              0.544
 Vibration    31          1.094              1.074              0.485
 Vibration    32          1.128              1.017              0.438
 Vibration    33          1.135              1.006              0.429

 Normal termination of Gaussian 09 at Sat Nov 19 07:24:22 2016.
