 Gaussian 09, Revision B.01,
 Gaussian 09:  EM64L-G09RevB.01 12-Aug-2010

 ----------------------------------------------------------------------
 #p scrf=(cpcm,solvent=water) opt Temperature=348.15 int=(grid=ultrafin
 e) CPHF=(grid=fine) freq rb3lyp/aug-cc-pvdz
 ----------------------------------------------------------------------

 -------------------------------
 p-NO2-Ph-F-RB3LYP-aug-cc-pVDZ--
 -------------------------------
 Symbolic Z-matrix:
 Charge =  0 Multiplicity = 1

 SCF Done:  E(RB3LYP) =  -536.071387902     A.U. after   13 cycles
 SCF Done:  E(RB3LYP) =  -536.071533225     A.U. after   11 cycles
 SCF Done:  E(RB3LYP) =  -536.071559126     A.U. after   10 cycles
 SCF Done:  E(RB3LYP) =  -536.071561417     A.U. after    9 cycles
 Optimization completed.
    -- Stationary point found.
 Normal termination of Gaussian 09 at Wed Aug 21 03:49:51 2019.

 ----------------------------------------------------------------------
 #P Geom=AllCheck Guess=TCheck SCRF=Check GenChk RB3LYP/Aug-CC-pVDZ Fre
 q
 ----------------------------------------------------------------------

 p-NO2-Ph-F-RB3LYP-aug-cc-pVDZ--
 -------------------------------
 Redundant internal coordinates taken from checkpoint file:
 /home/ubuntu/g09/Gau-11881.chk
 Charge =  0 Multiplicity = 1

                         Standard orientation:
 ---------------------------------------------------------------------
 Center     Atomic      Atomic             Coordinates (Angstroms)
 Number     Number       Type             X           Y           Z
 ---------------------------------------------------------------------
      1          6           0        0.000000    1.224677    0.001187
      2          6           0        0.000000    1.225944    1.394095
      3          6           0        0.000000    0.000000    2.056294
      4          6           0        0.000000   -1.225944    1.394095
      5          6           0        0.000000   -1.224677    0.001187
      6          6           0        0.000000    0.000000   -0.674761
      7          1           0        0.000000    2.157448   -0.555721
      8          1           0        0.000000    2.155453    1.959896
      9          1           0        0.000000   -2.155453    1.959896
     10          1           0        0.000000   -2.157448   -0.555721
     11          7           0        0.000000    0.000000   -2.139072
     12          8           0        0.000000    1.085217   -2.723271
     13          8           0        0.000000   -1.085217   -2.723271
     14          9           0        0.000000    0.000000    3.411656
 ---------------------------------------------------------------------

 SCF Done:  E(RB3LYP) =  -536.071561417     A.U. after    2 cycles

 The electronic state is 1-A1.
 Alpha  occ. eigenvalues --  -24.74559 -19.19980 -19.19980 -14.58761 -10.30719
 Alpha  occ. eigenvalues --  -10.26421 -10.23332 -10.23330 -10.22486 -10.22485
 Alpha  occ. eigenvalues --   -1.25469  -1.24844  -1.07409  -0.90790  -0.82516
 Alpha  occ. eigenvalues --   -0.79230  -0.71765  -0.65860  -0.61986  -0.58254
 Alpha  occ. eigenvalues --   -0.56522  -0.55268  -0.54412  -0.51416  -0.49377
 Alpha  occ. eigenvalues --   -0.47882  -0.46262  -0.44365  -0.43032  -0.39508
 Alpha  occ. eigenvalues --   -0.37950  -0.33681  -0.33680  -0.31545  -0.29327
 Alpha  occ. eigenvalues --   -0.28548
 Alpha virt. eigenvalues --   -0.11333  -0.04782  -0.01618  -0.00644   0.00895
 Alpha virt. eigenvalues --    0.01034   0.02939   0.03306   0.04972   0.05342
 Alpha virt. eigenvalues --    0.06737   0.07759   0.07892   0.08740   0.08888

 Mulliken atomic charges:
              1
     1  C    1.015385
     2  C    0.588725
     3  C    0.096581
     4  C    0.588725
     5  C    1.015385
     6  C    0.975283
     7  H   -0.797976
     8  H   -0.683827
     9  H   -0.683827
    10  H   -0.797976
    11  N    0.729817
    12  O   -0.736235
    13  O   -0.736235
    14  F   -0.573824
 Sum of Mulliken atomic charges =   0.00000

 Dipole moment (field-independent basis, Debye):
    X=              0.0000    Y=              0.0000    Z=              4.3979  Tot=              4.3979
 Quadrupole moment (field-independent basis, Debye-Ang):
   XX=            -56.6453   YY=            -49.7743   ZZ=            -75.3807
   XY=              0.0000   XZ=              0.0000   YZ=              0.0000

  Exact polarizability:  65.334   0.000 136.634   0.000   0.000 173.322
 Approx polarizability:  75.860   0.000 183.687   0.000   0.000 202.484

                     1                      2                      3
                    A2                     B1                     B2
 Frequencies --    52.9355               115.7192               225.2046
 Red. masses --     7.9147                10.5545                 9.7697
 Frc consts  --     0.0131                 0.0833                 0.2919
 IR Inten    --     0.0000                 7.5786                 5.8996

                     4                      5                      6
                    B1                     A1                     B2
 Frequencies --   309.4966               356.4303               403.7869
 Red. masses --     7.3517                13.4797                 7.0093
 Frc consts  --     0.4149                 1.0090                 0.6733
 IR Inten    --     0.0350                 0.8358                 6.2476

                     7                      8                      9
                    A2                     B1                     B2
 Frequencies --   424.9833               498.7014               532.0914
 Red. masses --     2.9483                 2.7452                 6.8515
 Frc consts  --     0.3137                 0.4023                 1.1429
 IR Inten    --     0.0000                16.0149                 1.2073

                    10                     11                     12
                    A1                     B2                     B1
 Frequencies --   621.8611               634.4406               699.5295
 Red. masses --     8.1190                 7.2438                 3.4582
 Frc consts  --     1.8499                 1.7179                 0.9971
 IR Inten    --    59.2322                 0.7303                17.6596

                    13                     14                     15
                    B1                     A1                     A2
 Frequencies --   772.9441               810.0903               816.1717
 Red. masses --     4.8871                 7.5889                 1.2454
 Frc consts  --     1.7203                 2.9342                 0.4888
 IR Inten    --    42.9581                 2.1773                 0.0000

                    16                     17                     18
                    B1                     A1                     B1
 Frequencies --   870.7426               871.3524               979.5970
 Red. masses --     1.8875                 9.1431                 1.4067
 Frc consts  --     0.8432                 4.0901                 0.7953
 IR Inten    --    73.6764                90.3064                 0.0177

                    19                     20                     21
                    A2                     A1                     B2
 Frequencies --   985.0892              1015.4270              1108.2954
 Red. masses --     1.3599                 2.5365                 1.1965
 Frc consts  --     0.7775                 1.5409                 0.8659
 IR Inten    --     0.0000                14.0976                18.2499

                    22                     23                     24
                    A1                     A1                     A1
 Frequencies --  1118.1341              1160.1790              1228.1533
 Red. masses --     2.5930                 1.3727                 4.3716
 Frc consts  --     1.9100                 1.0886                 3.8850
 IR Inten    --   136.4753                48.4936               287.4886

                    25                     26                     27
                    B2                     A1                     B2
 Frequencies --  1290.2455              1362.6174              1375.4153
 Red. masses --     1.2816                13.1779                10.8069
 Frc consts  --     1.2571                14.4159                12.0453
 IR Inten    --     1.9829               755.2047                50.7705

                    28                     29                     30
                    B2                     A1                     B2
 Frequencies --  1435.2201              1503.2609              1547.1325
 Red. masses --     3.9143                 2.5965                12.8999
 Frc consts  --     4.7505                 3.4570                18.1925
 IR Inten    --    13.0388               118.5231               475.9861

                    31                     32                     33
                    A1                     B2                     A1
 Frequencies --  1626.1708              1650.5241              3219.4477
 Red. masses --     6.5375                 8.3219                 1.0919
 Frc consts  --    10.1857                13.3572                 6.6683
 IR Inten    --   163.4476                73.0596                 1.0900

                    34                     35                     36
                    B2                     B2                     A1
 Frequencies --  3220.3910              3242.1988              3242.3439
 Red. masses --     1.0920                 1.0940                 1.0949
 Frc consts  --     6.6726                 6.7757                 6.7816
 IR Inten    --     0.0322                 3.9261                 6.5245

 - Thermochemistry -
 -------------------
 Temperature   348.150 Kelvin.  Pressure   1.00000 Atm.
 Atom     1 has atomic number  6 and mass  12.00000

 Molecular mass:   141.02261 amu.
 Principal axes and moments of inertia in atomic units:
                           1         2         3
     Eigenvalues --   458.837192262.825872721.66307
           X            0.00000   0.00000   1.00000
           Y            0.00000   1.00000   0.00000
           Z            1.00000   0.00000   0.00000
 This molecule is an asymmetric top.
 Rotational symmetry number  2.
 Warning -- assumption of classical behavior for rotation
           may cause significant error
 Rotational temperatures (Kelvin)      0.18877     0.03828     0.03182
 Rotational constants (GHZ):           3.93329     0.79756     0.66310
 Zero-point vibrational energy     247186.3 (Joules/Mol)
                                   59.07895 (Kcal/Mol)
 Warning -- explicit consideration of  12 degrees of freedom as
           vibrations may cause significant error
 Vibrational temperatures:     76.16   166.49   324.02   445.30   512.82
          (Kelvin)            580.96   611.46   717.52   765.56   894.72
                              912.82  1006.47  1112.09  1165.54  1174.29
                             1252.80  1253.68  1409.42  1417.32  1460.97
                             1594.59  1608.74  1669.24  1767.04  1856.37
                             1960.50  1978.91  2064.96  2162.85  2225.98
                             2339.69  2374.73  4632.06  4633.42  4664.80
                             4665.00

 Zero-point correction=                           0.094148 (Hartree/Particle)
 Thermal correction to Energy=                    0.104294
 Thermal correction to Enthalpy=                  0.105396
 Thermal correction to Gibbs Free Energy=         0.054394
 Sum of electronic and zero-point Energies=           -535.977413
 Sum of electronic and thermal Energies=              -535.967268
 Sum of electronic and thermal Enthalpies=            -535.966165
 Sum of electronic and thermal Free Energies=         -536.017167

                     E (Thermal)             CV                S
                      KCal/Mol        Cal/Mol-Kelvin    Cal/Mol-Kelvin
 Total                   65.445             33.157             91.926
 Electronic               0.000              0.000              0.000
 Translational            1.038              2.981             41.513
 Rotational               1.038              2.981             28.510
 Vibrational             63.370             27.196             21.903
 Vibration     1          0.695              1.979              5.011
 Vibration     2          0.705              1.950              3.472
 Vibration     3          0.741              1.850              2.200
 Vibration     4          0.784              1.737              1.628
 Vibration     5          0.813              1.664              1.388
 Vibration     6          0.845              1.584              1.185
 Vibration     7          0.861              1.546              1.105
 Vibration     8          0.921              1.411              0.868
 Vibration     9          0.950              1.348              0.779
 Vibration    10          1.036              1.178              0.582
 Vibration    11          1.049              1.154              0.558
 Vibration    12          1.118              1.034              0.451

 Optimization completed.
    -- Stationary point found.
 Normal termination of Gaussian 09 at Wed Aug 21 03:59:05 2019.
