 Gaussian 09, Revision B.01,
 Gaussian 09:  EM64L-G09RevB.01 12-Aug-2010

 ----------------------------------------------------------------------
 #p Temperature=348.15 int=(grid=ultrafine) CPHF=(grid=fine) freq rb3ly
 p/aug-cc-pvdz
 ----------------------------------------------------------------------

 ---------------------------------
 o-NO2-Ph-OTf-RB3LYP-aug-cc-pVDZ--
 ---------------------------------
 Symbolic Z-matrix:
 Charge =  0 Multiplicity = 1

                         Standard orientation:
 ---------------------------------------------------------------------
 Center     Atomic      Atomic             Coordinates (Angstroms)
 Number     Number       Type             X           Y           Z
 ---------------------------------------------------------------------
      1          6           0       -3.074130   -2.065161   -0.292780
      2          6           0       -1.714120   -1.852180   -0.526410
      3          6           0       -1.186060   -0.562620   -0.447680
      4          6           0       -2.027330    0.513230   -0.120810
      5          6           0       -3.383610    0.295439    0.128760
      6          6           0       -3.909150   -0.992501    0.033890
      7          1           0       -3.479260   -3.074171   -0.364400
      8          1           0       -1.044920   -2.675570   -0.769450
      9         16           0        1.236360   -0.716200    0.544130
     10          6           0        2.688430    0.234191   -0.250760
     11          8           0        0.168010   -0.377150   -0.719420
     12          8           0        0.798940   -0.016440    1.763250
     13          8           0        1.568300   -2.150450    0.542200
     14          9           0        2.927290   -0.252669   -1.466820
     15          9           0        2.405559    1.527391   -0.314010
     16          9           0        3.749040    0.033001    0.536240
     17          1           0       -4.970330   -1.156461    0.216910
     18          7           0       -1.539491    1.903750   -0.049520
     19          8           0       -2.102161    2.647850    0.748240
     20          8           0       -0.633671    2.233750   -0.806480
     21          1           0       -4.007331    1.146789    0.391280
 ---------------------------------------------------------------------

 SCF Done:  E(RB3LYP) =  -1397.69254716     A.U. after   16 cycles

 The electronic state is 1-A.
 Alpha  occ. eigenvalues --  -89.17940 -24.79806 -24.79771 -24.79663 -19.24877
 Alpha  occ. eigenvalues --  -19.20586 -19.20478 -19.20185 -19.20153 -14.59127
 Alpha  occ. eigenvalues --  -10.50729 -10.31072 -10.28396 -10.24428 -10.24226
 Alpha  occ. eigenvalues --  -10.24049 -10.23822  -8.20836  -6.17273  -6.17083
 Alpha  occ. eigenvalues --   -6.17001  -1.37796  -1.29190  -1.29088  -1.25314
 Alpha  occ. eigenvalues --   -1.18319  -1.09900  -1.07988  -1.06074  -0.91800
 Alpha  occ. eigenvalues --   -0.83693  -0.81657  -0.78365  -0.73586  -0.71392
 Alpha  occ. eigenvalues --   -0.66681  -0.65337  -0.65218  -0.63725  -0.62182
 Alpha  occ. eigenvalues --   -0.58397  -0.56982  -0.55745  -0.54047  -0.53219
 Alpha  occ. eigenvalues --   -0.52595  -0.52057  -0.51744  -0.51239  -0.50148
 Alpha  occ. eigenvalues --   -0.49000  -0.48711  -0.48547  -0.47155  -0.46492
 Alpha  occ. eigenvalues --   -0.43441  -0.42278  -0.41302  -0.39937  -0.39017
 Alpha  occ. eigenvalues --   -0.37217  -0.36353  -0.34891  -0.33426  -0.33141
 Alpha  occ. eigenvalues --   -0.32310  -0.30150  -0.29913
 Alpha virt. eigenvalues --   -0.11347  -0.07291  -0.04480  -0.03102  -0.02424
 Alpha virt. eigenvalues --   -0.01816  -0.00250   0.00085   0.01545   0.01904
 Alpha virt. eigenvalues --    0.02452   0.03023   0.03542   0.03869   0.05101

 Mulliken atomic charges:
              1
     1  C    0.761505
     2  C    1.153481
     3  C    0.337302
     4  C    0.224538
     5  C    1.402827
     6  C    0.520876
     7  H   -0.725392
     8  H   -0.887448
     9  S    2.209702
    10  C    1.131540
    11  O   -0.955718
    12  O   -0.859714
    13  O   -0.864278
    14  F   -0.416559
    15  F   -0.406668
    16  F   -0.395672
    17  H   -0.723878
    18  N    0.637131
    19  O   -0.653528
    20  O   -0.632410
    21  H   -0.857638
 Sum of Mulliken atomic charges =   0.00000

 Dipole moment (field-independent basis, Debye):
    X=             -3.0812    Y=             -3.1950    Z=             -1.4885  Tot=              4.6815
 Quadrupole moment (field-independent basis, Debye-Ang):
   XX=            -83.5762   YY=           -108.0802   ZZ=           -107.0262
   XY=             10.4115   XZ=              0.0143   YZ=              1.2441

  Exact polarizability: 169.762   7.991 148.182  -8.438   6.865  96.214
 Approx polarizability: 250.626   2.929 249.663 -33.010  19.677 175.303

                     1                      2                      3
                     A                      A                      A
 Frequencies --    15.3382                29.0813                42.6067
 Red. masses --    12.6840                11.9666                16.0917
 Frc consts  --     0.0018                 0.0060                 0.0172
 IR Inten    --     1.4990                 1.1768                 0.3528

                     4                      5                      6
                     A                      A                      A
 Frequencies --    52.1065                67.9754               119.3198
 Red. masses --    15.2937                 8.5299                 6.9596
 Frc consts  --     0.0245                 0.0232                 0.0584
 IR Inten    --     0.3340                 0.8909                 1.3296

                     7                      8                      9
                     A                      A                      A
 Frequencies --   137.9849               168.2358               187.1278
 Red. masses --     6.9017                16.6617                14.7059
 Frc consts  --     0.0774                 0.2778                 0.3034
 IR Inten    --     0.9418                 1.4650                 2.3374

                    10                     11                     12
                     A                      A                      A
 Frequencies --   243.7130               246.5123               288.0709
 Red. masses --     6.6903                16.5726                12.1378
 Frc consts  --     0.2341                 0.5934                 0.5935
 IR Inten    --     0.3793                 6.6801                 1.8207

                    13                     14                     15
                     A                      A                      A
 Frequencies --   292.7304               344.6593               373.8148
 Red. masses --    12.2701                10.9314                11.3689
 Frc consts  --     0.6195                 0.7651                 0.9360
 IR Inten    --     1.0932                 1.1124                 2.2264

                    16                     17                     18
                     A                      A                      A
 Frequencies --   417.3282               433.8721               462.8842
 Red. masses --     5.7766                 6.8542                 8.9913
 Frc consts  --     0.5928                 0.7602                 1.1351
 IR Inten    --     2.6533                 4.4700                13.6244

                    19                     20                     21
                     A                      A                      A
 Frequencies --   510.7654               525.3959               539.3718
 Red. masses --     8.9033                 7.9456                17.5046
 Frc consts  --     1.3685                 1.2923                 3.0004
 IR Inten    --    31.1435                40.3925                 1.3033

                    22                     23                     24
                     A                      A                      A
 Frequencies --   548.1864               575.0314               620.6711
 Red. masses --    11.4920                 5.9598                 6.2413
 Frc consts  --     2.0347                 1.1611                 1.4166
 IR Inten    --    21.0817                 7.1709                47.4760

                    25                     26                     27
                     A                      A                      A
 Frequencies --   653.9450               684.5821               710.2889
 Red. masses --     7.6814                 9.1254                 3.6521
 Frc consts  --     1.9354                 2.5197                 1.0856
 IR Inten    --    79.4692               141.9323                11.1808

                    28                     29                     30
                     A                      A                      A
 Frequencies --   753.5545               768.7282               793.0093
 Red. masses --    14.6788                 2.5074                 2.0223
 Frc consts  --     4.9110                 0.8730                 0.7493
 IR Inten    --    14.9629                48.6648                23.9881

                    31                     32                     33
                     A                      A                      A
 Frequencies --   827.9817               873.3250               889.2891
 Red. masses --     8.8383                 8.6976                 1.5757
 Frc consts  --     3.5700                 3.9084                 0.7342
 IR Inten    --    85.4280                75.7966                 0.9946

                    34                     35                     36
                     A                      A                      A
 Frequencies --   973.0828              1006.5161              1055.4448
 Red. masses --     1.3821                 1.3477                 4.0792
 Frc consts  --     0.7711                 0.8044                 2.6773
 IR Inten    --     2.6973                 0.2863               128.8603

                    37                     38                     39
                     A                      A                      A
 Frequencies --  1058.8730              1091.1818              1150.0084
 Red. masses --     3.6477                 3.6634                 6.8800
 Frc consts  --     2.4096                 2.5700                 5.3610
 IR Inten    --    82.8235                81.7699               191.5326

                    40                     41                     42
                     A                      A                      A
 Frequencies --  1160.3910              1176.6991              1202.0775
 Red. masses --     1.7169                 1.1934                 8.8452
 Frc consts  --     1.3621                 0.9736                 7.5304
 IR Inten    --    11.0530                 1.9557               180.3665

                    43                     44                     45
                     A                      A                      A
 Frequencies --  1215.3664              1229.4563              1277.6669
 Red. masses --     4.1240                11.4082                 1.5386
 Frc consts  --     3.5891                10.1600                 1.4798
 IR Inten    --    77.0861               165.9902                 6.3343

                    46                     47                     48
                     A                      A                      A
 Frequencies --  1302.2838              1354.7953              1389.2684
 Red. masses --    18.3045                 7.8842                14.3755
 Frc consts  --    18.2902                 8.5262                16.3472
 IR Inten    --   216.0578                 4.3403               235.0162

                    49                     50                     51
                     A                      A                      A
 Frequencies --  1464.3688              1498.2589              1601.2046
 Red. masses --     2.4199                 2.6446                10.6147
 Frc consts  --     3.0574                 3.4977                16.0343
 IR Inten    --     4.5582                47.8599               189.6847

                    52                     53                     54
                     A                      A                      A
 Frequencies --  1627.8073              1642.2054              3192.6962
 Red. masses --     6.7255                 7.8858                 1.0872
 Frc consts  --    10.4998                12.5300                 6.5295
 IR Inten    --    21.5917               102.1244                 1.7977

                    55                     56                     57
                     A                      A                      A
 Frequencies --  3206.0406              3217.2635              3226.8935
 Red. masses --     1.0927                 1.0958                 1.0946
 Frc consts  --     6.6174                 6.6825                 6.7153
 IR Inten    --     4.9222                 0.2582                 2.2986

 - Thermochemistry -
 -------------------
 Temperature   348.150 Kelvin.  Pressure   1.00000 Atm.
 Atom     1 has atomic number  6 and mass  12.00000

 Molecular mass:   270.97623 amu.
 Principal axes and moments of inertia in atomic units:
                           1         2         3
     Eigenvalues --  2361.956145615.692256916.50235
           X            0.99991   0.01313   0.00199
           Y           -0.01315   0.99987   0.00942
           Z           -0.00187  -0.00944   0.99995
 This molecule is an asymmetric top.
 Rotational symmetry number  1.
 Warning -- assumption of classical behavior for rotation
           may cause significant error
 Rotational temperatures (Kelvin)      0.03667     0.01542     0.01252
 Rotational constants (GHZ):           0.76409     0.32137     0.26093
 Zero-point vibrational energy     314123.4 (Joules/Mol)
                                   75.07730 (Kcal/Mol)
 Warning -- explicit consideration of  27 degrees of freedom as
           vibrations may cause significant error
 Vibrational temperatures:     22.07    41.84    61.30    74.97    97.80
          (Kelvin)            171.67   198.53   242.05   269.23   350.65
                              354.68   414.47   421.17   495.89   537.84
                              600.44   624.24   665.99   734.88   755.93
                              776.03   788.72   827.34   893.01   940.88
                              984.96  1021.95  1084.20  1106.03  1140.96
                             1191.28  1256.52  1279.49  1400.05  1448.15
                             1518.55  1523.48  1569.97  1654.60  1669.54
                             1693.01  1729.52  1748.64  1768.91  1838.28
                             1873.69  1949.25  1998.84  2106.90  2155.66
                             2303.77  2342.05  2362.76  4593.57  4612.77
                             4628.92  4642.77

 Zero-point correction=                           0.119643 (Hartree/Particle)
 Thermal correction to Energy=                    0.139558
 Thermal correction to Enthalpy=                  0.140660
 Thermal correction to Gibbs Free Energy=         0.062932
 Sum of electronic and zero-point Energies=          -1397.572904
 Sum of electronic and thermal Energies=             -1397.552990
 Sum of electronic and thermal Enthalpies=           -1397.551887
 Sum of electronic and thermal Free Energies=        -1397.629615

                     E (Thermal)             CV                S
                      KCal/Mol        Cal/Mol-Kelvin    Cal/Mol-Kelvin
 Total                   87.574             61.045            140.098
 Electronic               0.000              0.000              0.000
 Translational            1.038              2.981             43.460
 Rotational               1.038              2.981             33.346
 Vibrational             85.498             55.083             63.293
 Vibration     1          0.692              1.987              7.469
 Vibration     2          0.693              1.985              6.199
 Vibration     3          0.694              1.982              5.441
 Vibration     4          0.695              1.980              5.043
 Vibration     5          0.696              1.974              4.517
 Vibration     6          0.706              1.947              3.412
 Vibration     7          0.710              1.934              3.130
 Vibration     8          0.719              1.909              2.749
 Vibration     9          0.726              1.891              2.547
 Vibration    10          0.749              1.827              2.055
 Vibration    11          0.751              1.824              2.034
 Vibration    12          0.772              1.768              1.754
 Vibration    13          0.774              1.762              1.726
 Vibration    14          0.805              1.683              1.444
 Vibration    15          0.824              1.635              1.309
 Vibration    16          0.855              1.560              1.133
 Vibration    17          0.868              1.531              1.073
 Vibration    18          0.891              1.478              0.976
 Vibration    19          0.931              1.389              0.835
 Vibration    20          0.944              1.361              0.796
 Vibration    21          0.957              1.335              0.761
 Vibration    22          0.965              1.318              0.739
 Vibration    23          0.990              1.267              0.677
 Vibration    24          1.035              1.180              0.584
 Vibration    25          1.069              1.118              0.524
 Vibration    26          1.102              1.061              0.474
 Vibration    27          1.129              1.014              0.436

 Normal termination of Gaussian 09 at Fri May  5 14:38:07 2017.
