 Gaussian 09, Revision B.01,
 Gaussian 09:  EM64L-G09RevB.01 12-Aug-2010

 ----------------------------------------------------------------------
 #p Temperature=348.15 int=(grid=ultrafine) CPHF=(grid=fine) freq rb3ly
 p/aug-cc-pvdz
 ----------------------------------------------------------------------

 ------------------------------------
 p-NO2-Ph-N2-OTs-RB3LYP-aug-cc-pVDZ--
 ------------------------------------
 Symbolic Z-matrix:
 Charge =  0 Multiplicity = 1

                         Standard orientation:
 ---------------------------------------------------------------------
 Center     Atomic      Atomic             Coordinates (Angstroms)
 Number     Number       Type             X           Y           Z
 ---------------------------------------------------------------------
      1          6           0        2.871350    0.303889   -1.128450
      2          6           0        1.997379   -0.779391   -1.114900
      3          6           0        2.010189   -1.658701   -0.022590
      4          6           0        2.905759   -1.481621    1.039220
      5          6           0        3.763940   -0.384001    1.039470
      6          6           0        3.734030    0.492359   -0.046120
      7          1           0        2.888560    1.005139   -1.958740
      8          1           0        1.310359   -0.945290   -1.941350
      9          1           0        2.921249   -2.200221    1.856820
     10          1           0        4.458310   -0.208132    1.856900
     11          7           0        4.648181    1.650048   -0.055370
     12          8           0        5.399311    1.792308    0.906310
     13          8           0        4.602991    2.405438   -1.023480
     14          7           0        1.216508   -2.848660   -0.017640
     15          7           0        0.002558   -2.893060   -0.048950
     16          6           0       -2.849410    0.765462   -1.154960
     17          6           0       -3.129219    2.128222   -1.070660
     18          6           0       -3.243249    2.773502    0.174000
     19          6           0       -3.073689    2.014282    1.342300
     20          6           0       -2.793310    0.647562    1.283570
     21          6           0       -2.683600    0.044092    0.030550
     22          1           0       -2.775930    0.261712   -2.116910
     23          1           0       -3.267319    2.700912   -1.988730
     24          1           0       -3.166639    2.496422    2.315790
     25          1           0       -2.675670    0.056252    2.189710
     26         16           0       -2.328351   -1.708609   -0.060940
     27          8           0       -0.616931   -1.540259   -0.035090
     28          8           0       -2.702051   -2.243958   -1.386110
     29          8           0       -2.731261   -2.386798    1.187220
     30          6           0       -3.549478    4.249282    0.240710
     31          1           0       -2.780428    4.834062   -0.284360
     32          1           0       -4.512278    4.472362   -0.241500
     33          1           0       -3.597948    4.602772    1.277520
 ---------------------------------------------------------------------

 SCF Done:  E(RB3LYP) =  -1440.47932386     A.U. after   20 cycles

 The electronic state is 1-A.
 Alpha  occ. eigenvalues --  -89.14889 -19.23149 -19.19896 -19.19895 -19.17041
 Alpha  occ. eigenvalues --  -19.17021 -14.58715 -14.48942 -14.43507 -10.28124
 Alpha  occ. eigenvalues --  -10.27455 -10.25264 -10.24249 -10.24230 -10.24080
 Alpha  occ. eigenvalues --  -10.24015 -10.23834 -10.23390 -10.23376 -10.22424
 Alpha  occ. eigenvalues --  -10.22417 -10.21174  -8.17709  -6.14169  -6.13984
 Alpha  occ. eigenvalues --   -6.13847  -1.24910  -1.16226  -1.11940  -1.07637
 Alpha  occ. eigenvalues --   -1.02672  -1.01533  -0.92060  -0.90320  -0.84896
 Alpha  occ. eigenvalues --   -0.82316  -0.80240  -0.78819  -0.76551  -0.74355
 Alpha  occ. eigenvalues --   -0.69044  -0.66582  -0.66119  -0.64986  -0.61958
 Alpha  occ. eigenvalues --   -0.60635  -0.58462  -0.57505  -0.56131  -0.55370
 Alpha  occ. eigenvalues --   -0.54151  -0.51963  -0.51466  -0.51001  -0.49232
 Alpha  occ. eigenvalues --   -0.49062  -0.48356  -0.47324  -0.46997  -0.46470
 Alpha  occ. eigenvalues --   -0.46072  -0.45638  -0.45057  -0.44336  -0.41647
 Alpha  occ. eigenvalues --   -0.41060  -0.40054  -0.39853  -0.39428  -0.37960
 Alpha  occ. eigenvalues --   -0.37038  -0.35957  -0.34013  -0.33795  -0.33456
 Alpha  occ. eigenvalues --   -0.33199  -0.32435  -0.31635  -0.31408  -0.30392
 Alpha  occ. eigenvalues --   -0.29395  -0.29221  -0.28129
 Alpha virt. eigenvalues --   -0.12042  -0.08425  -0.07347  -0.05895  -0.05102
 Alpha virt. eigenvalues --   -0.02773  -0.02565  -0.01504  -0.00631  -0.00538
 Alpha virt. eigenvalues --    0.00326   0.00469   0.01156   0.01743   0.02085

 Mulliken atomic charges:
              1
     1  C    1.174767
     2  C    1.136414
     3  C   -0.395101
     4  C    0.963903
     5  C    1.251930
     6  C    0.519161
     7  H   -0.879025
     8  H   -0.879448
     9  H   -0.817873
    10  H   -0.849087
    11  N    0.747011
    12  O   -0.681105
    13  O   -0.679992
    14  N   -0.255127
    15  N   -0.104138
    16  C    0.477091
    17  C    1.338135
    18  C   -0.062001
    19  C    1.273451
    20  C    0.255204
    21  C    0.519059
    22  H   -1.022529
    23  H   -1.016170
    24  H   -1.007667
    25  H   -1.012551
    26  S    2.273956
    27  O   -0.723109
    28  O   -0.901959
    29  O   -0.892047
    30  C    0.878655
    31  H   -0.106044
    32  H   -0.103806
    33  H   -0.419961
 Sum of Mulliken atomic charges =   0.00000

 Dipole moment (field-independent basis, Debye):
    X=             -1.7095    Y=              3.7158    Z=              0.3353  Tot=              4.1039
 Quadrupole moment (field-independent basis, Debye-Ang):
   XX=           -151.6559   YY=           -144.3733   ZZ=           -127.0390
   XY=            -36.6382   XZ=              1.2647   YZ=             -1.3964

  Exact polarizability: 246.038   9.391 256.472  13.456  -9.988 193.839
 Approx polarizability: 331.459  25.879 403.581  36.359 -29.844 377.921

                     1                      2                      3
                     A                      A                      A
 Frequencies --    13.1967                15.9188                24.7142
 Red. masses --     5.6916                 7.1617                 5.1965
 Frc consts  --     0.0006                 0.0011                 0.0019
 IR Inten    --     0.3324                 1.3464                 0.8889

                     4                      5                      6
                     A                      A                      A
 Frequencies --    32.2967                51.2053                57.6594
 Red. masses --     4.3005                 4.3670                 1.2869
 Frc consts  --     0.0026                 0.0067                 0.0025
 IR Inten    --     0.7313                 0.8384                 0.3424

                     7                      8                      9
                     A                      A                      A
 Frequencies --    59.9904                74.1237               109.4822
 Red. masses --     5.2892                11.0762                 5.6847
 Frc consts  --     0.0112                 0.0359                 0.0401
 IR Inten    --     0.9387                 3.0566                 2.4306

                    10                     11                     12
                     A                      A                      A
 Frequencies --   143.3385               159.8904               185.7947
 Red. masses --     7.4957                 6.8385                10.3567
 Frc consts  --     0.0907                 0.1030                 0.2106
 IR Inten    --     1.3343                 1.4269                 9.2538

                    13                     14                     15
                     A                      A                      A
 Frequencies --   206.3599               267.8400               274.9051
 Red. masses --     8.3225                 7.1297                 7.5368
 Frc consts  --     0.2088                 0.3014                 0.3356
 IR Inten    --     9.8751                 3.8186                 0.2079

                    16                     17                     18
                     A                      A                      A
 Frequencies --   293.8793               301.6456               337.4834
 Red. masses --     6.4991                 6.1586                 6.1873
 Frc consts  --     0.3307                 0.3302                 0.4152
 IR Inten    --     0.8493                 0.6905                 2.0511

                    19                     20                     21
                     A                      A                      A
 Frequencies --   346.9457               363.2174               414.6611
 Red. masses --    10.9208                 3.6484                 2.9697
 Frc consts  --     0.7745                 0.2836                 0.3009
 IR Inten    --    38.6070                 2.2391                13.9742

                    22                     23                     24
                     A                      A                      A
 Frequencies --   415.0285               437.1267               450.2195
 Red. masses --     2.9006                 6.5386                 7.8053
 Frc consts  --     0.2944                 0.7361                 0.9322
 IR Inten    --     2.9560                11.5849                 8.2173

                    25                     26                     27
                     A                      A                      A
 Frequencies --   458.0255               476.8973               516.4693
 Red. masses --    12.4743                 4.0322                 4.6189
 Frc consts  --     1.5419                 0.5403                 0.7259
 IR Inten    --  1097.2444                 1.4921                21.9661

                    28                     29                     30
                     A                      A                      A
 Frequencies --   525.8903               539.0647               581.9520
 Red. masses --     6.1395                 7.5555                 7.2980
 Frc consts  --     1.0004                 1.2936                 1.4562
 IR Inten    --    26.4076               218.4080                54.7235

                    31                     32                     33
                     A                      A                      A
 Frequencies --   596.0091               634.7727               643.5690
 Red. masses --     6.2868                 6.9128                 6.9558
 Frc consts  --     1.3158                 1.6411                 1.6974
 IR Inten    --     4.0456                 1.0691                 1.8630

                    34                     35                     36
                     A                      A                      A
 Frequencies --   653.9483               656.9098               705.0736
 Red. masses --     7.6775                 7.7681                 3.6572
 Frc consts  --     1.9344                 1.9751                 1.0712
 IR Inten    --   122.3258                36.8651                19.8509

                    37                     38                     39
                     A                      A                      A
 Frequencies --   719.4017               770.0217               783.7206
 Red. masses --     3.3371                 4.7806                 7.2493
 Frc consts  --     1.0176                 1.6701                 2.6234
 IR Inten    --     2.5976                26.5524                10.3606

                    40                     41                     42
                     A                      A                      A
 Frequencies --   813.4207               824.8282               833.3651
 Red. masses --     5.0953                 1.3924                 1.2642
 Frc consts  --     1.9863                 0.5581                 0.5173
 IR Inten    --     7.9179                36.5021                 0.6897

                    43                     44                     45
                     A                      A                      A
 Frequencies --   844.2546               857.3865               868.1529
 Red. masses --     1.2458                 2.2369                 8.8270
 Frc consts  --     0.5232                 0.9688                 3.9197
 IR Inten    --     0.0121                22.3939                39.7550

                    46                     47                     48
                     A                      A                      A
 Frequencies --   928.0326               967.5980               980.5426
 Red. masses --     5.5354                 1.2988                 1.3890
 Frc consts  --     2.8088                 0.7164                 0.7869
 IR Inten    --    26.4983                 0.4948                 0.0281

                    49                     50                     51
                     A                      A                      A
 Frequencies --   988.6900               990.5025              1003.6919
 Red. masses --     1.3686                 1.3778                 1.4347
 Frc consts  --     0.7882                 0.7965                 0.8515
 IR Inten    --     0.0521                 0.0315                 3.0340

                    52                     53                     54
                     A                      A                      A
 Frequencies --  1023.5611              1025.5746              1052.2756
 Red. masses --     2.7729                 3.7736                 1.5972
 Frc consts  --     1.7116                 2.3385                 1.0420
 IR Inten    --     2.2037                18.1007                 3.8836

                    55                     56                     57
                     A                      A                      A
 Frequencies --  1071.6962              1119.2849              1120.0489
 Red. masses --     3.9175                 1.6841                 1.8355
 Frc consts  --     2.6509                 1.2431                 1.3567
 IR Inten    --    69.3180                23.3914                45.4314

                    58                     59                     60
                     A                      A                      A
 Frequencies --  1125.6311              1132.2625              1173.9812
 Red. masses --     5.3104                 1.3036                 2.0163
 Frc consts  --     3.9643                 0.9847                 1.6373
 IR Inten    --   188.3184                 9.7402                 7.0766

                    61                     62                     63
                     A                      A                      A
 Frequencies --  1195.2382              1198.9149              1230.2889
 Red. masses --     1.9259                 1.1797                 2.9690
 Frc consts  --     1.6211                 0.9991                 2.6477
 IR Inten    --     0.5456                 2.6341                 2.5940

                    64                     65                     66
                     A                      A                      A
 Frequencies --  1278.5554              1307.0260              1320.9277
 Red. masses --    17.2196                 1.3030                 1.2792
 Frc consts  --    16.5849                 1.3115                 1.3150
 IR Inten    --   153.7637                 2.5272                 0.2026

                    67                     68                     69
                     A                      A                      A
 Frequencies --  1350.8993              1362.8463              1380.3458
 Red. masses --     8.2984                 9.7866                14.2216
 Frc consts  --     8.9225                10.7096                15.9652
 IR Inten    --     0.8025                21.1065               366.9304

                    70                     71                     72
                     A                      A                      A
 Frequencies --  1399.0260              1426.5530              1436.2351
 Red. masses --     1.2602                 2.4140                 3.4235
 Frc consts  --     1.4532                 2.8944                 4.1607
 IR Inten    --     2.0172                 6.7635                 0.1677

                    73                     74                     75
                     A                      A                      A
 Frequencies --  1461.8520              1475.4694              1502.9830
 Red. masses --     1.0422                 1.1678                 2.3766
 Frc consts  --     1.3123                 1.4979                 3.1631
 IR Inten    --     6.7016                17.3488                16.8415

                    76                     77                     78
                     A                      A                      A
 Frequencies --  1516.0169              1588.0989              1617.9448
 Red. masses --     2.3981                12.1363                 6.6319
 Frc consts  --     3.2473                18.0340                10.2286
 IR Inten    --     7.3902               172.8826                 0.8434

                    79                     80                     81
                     A                      A                      A
 Frequencies --  1629.8183              1638.4002              1647.1034
 Red. masses --     6.1946                 5.8267                 8.9012
 Frc consts  --     9.6949                 9.2154                14.2279
 IR Inten    --    44.7894                32.0256                81.8365

                    82                     83                     84
                     A                      A                      A
 Frequencies --  1721.6031              3033.2864              3091.3823
 Red. masses --    13.5452                 1.0375                 1.1001
 Frc consts  --    23.6539                 5.6245                 6.1940
 IR Inten    --   152.5923                16.8971                 9.1126

                    85                     86                     87
                     A                      A                      A
 Frequencies --  3124.3119              3178.0229              3183.6520
 Red. masses --     1.1013                 1.0901                 1.0902
 Frc consts  --     6.3340                 6.4870                 6.5105
 IR Inten    --    12.6149                 7.4471                 7.3099

                    88                     89                     90
                     A                      A                      A
 Frequencies --  3207.2461              3214.3494              3215.0218
 Red. masses --     1.0912                 1.0934                 1.0945
 Frc consts  --     6.6134                 6.6563                 6.6653
 IR Inten    --     0.3016                 0.3040                 3.3171

                    91                     92                     93
                     A                      A                      A
 Frequencies --  3217.3811              3234.6872              3235.4293
 Red. masses --     1.0905                 1.0942                 1.0947
 Frc consts  --     6.6508                 6.7456                 6.7518
 IR Inten    --     0.2610                 2.5521                 4.3913

 - Thermochemistry -
 -------------------
 Temperature   348.150 Kelvin.  Pressure   1.00000 Atm.
 Atom     1 has atomic number  6 and mass  12.00000

 Molecular mass:   321.04194 amu.
 Principal axes and moments of inertia in atomic units:
                           1         2         3
     Eigenvalues --  5503.00137********************
           X            0.99916  -0.04098   0.00071
           Y            0.04098   0.99916  -0.00114
           Z           -0.00066   0.00116   1.00000
 This molecule is an asymmetric top.
 Rotational symmetry number  1.
 Warning -- assumption of classical behavior for rotation
           may cause significant error
 Rotational temperatures (Kelvin)      0.01574     0.00729     0.00554
 Rotational constants (GHZ):           0.32796     0.15180     0.11548
 Zero-point vibrational energy     608087.8 (Joules/Mol)
                                  145.33648 (Kcal/Mol)
 Warning -- explicit consideration of  37 degrees of freedom as
           vibrations may cause significant error
 Vibrational temperatures:     18.99    22.90    35.56    46.47    73.67
          (Kelvin)             82.96    86.31   106.65   157.52   206.23
                              230.05   267.32   296.91   385.36   395.53
                              422.83   434.00   485.56   499.18   522.59
                              596.60   597.13   628.93   647.76   659.00
                              686.15   743.08   756.64   775.59   837.30
                              857.52   913.30   925.95   940.88   945.15
                             1014.44  1035.06  1107.89  1127.60  1170.33
                             1186.74  1199.03  1214.69  1233.59  1249.08
                             1335.23  1392.16  1410.78  1422.50  1425.11
                             1444.09  1472.67  1475.57  1513.99  1541.93
                             1610.40  1611.50  1619.53  1629.07  1689.10
                             1719.68  1724.97  1770.11  1839.55  1880.52
                             1900.52  1943.64  1960.83  1986.01  2012.88
                             2052.49  2066.42  2103.28  2122.87  2162.45
                             2181.21  2284.92  2327.86  2344.94  2357.29
                             2369.81  2477.00  4364.22  4447.80  4495.18
                             4572.46  4580.56  4614.51  4624.73  4625.69
                             4629.09  4653.99  4655.06

 Zero-point correction=                           0.231608 (Hartree/Particle)
 Thermal correction to Energy=                    0.258129
 Thermal correction to Enthalpy=                  0.259231
 Thermal correction to Gibbs Free Energy=         0.164546
 Sum of electronic and zero-point Energies=          -1440.247715
 Sum of electronic and thermal Energies=             -1440.221195
 Sum of electronic and thermal Enthalpies=           -1440.220093
 Sum of electronic and thermal Free Energies=        -1440.314778

                     E (Thermal)             CV                S
                      KCal/Mol        Cal/Mol-Kelvin    Cal/Mol-Kelvin
 Total                  161.978             84.247            170.661
 Electronic               0.000              0.000              0.000
 Translational            1.038              2.981             43.965
 Rotational               1.038              2.981             35.741
 Vibrational            159.903             78.286             90.955
 Vibration     1          0.692              1.987              7.768
 Vibration     2          0.692              1.986              7.395
 Vibration     3          0.692              1.985              6.522
 Vibration     4          0.693              1.984              5.991
 Vibration     5          0.694              1.980              5.077
 Vibration     6          0.695              1.978              4.842
 Vibration     7          0.695              1.977              4.764
 Vibration     8          0.697              1.972              4.346
 Vibration     9          0.704              1.954              3.580
 Vibration    10          0.712              1.930              3.057
 Vibration    11          0.717              1.916              2.846
 Vibration    12          0.726              1.892              2.560
 Vibration    13          0.733              1.871              2.363
 Vibration    14          0.761              1.796              1.884
 Vibration    15          0.765              1.787              1.837
 Vibration    16          0.775              1.760              1.719
 Vibration    17          0.779              1.749              1.673
 Vibration    18          0.801              1.694              1.480
 Vibration    19          0.806              1.679              1.433
 Vibration    20          0.817              1.653              1.357
 Vibration    21          0.853              1.565              1.143
 Vibration    22          0.854              1.564              1.142
 Vibration    23          0.870              1.525              1.062
 Vibration    24          0.881              1.501              1.017
 Vibration    25          0.887              1.487              0.992
 Vibration    26          0.903              1.452              0.932
 Vibration    27          0.936              1.378              0.819
 Vibration    28          0.945              1.360              0.795
 Vibration    29          0.957              1.335              0.761
 Vibration    30          0.997              1.254              0.662
 Vibration    31          1.011              1.227              0.633
 Vibration    32          1.049              1.154              0.558
 Vibration    33          1.058              1.137              0.542
 Vibration    34          1.069              1.118              0.524
 Vibration    35          1.072              1.112              0.519
 Vibration    36          1.124              1.024              0.443
 Vibration    37          1.139              0.998              0.423

 Normal termination of Gaussian 09 at Fri May  5 19:51:34 2017.
