 Gaussian 09, Revision B.01,
 Gaussian 09:  EM64L-G09RevB.01 12-Aug-2010

 ----------------------------------------------------------------------
 #p opt=(verytight,maxcycles=1000) int=(grid=ultrafine) CPHF=(grid=fine
 ) freq rb3lyp/aug-cc-pvdz
 ----------------------------------------------------------------------

 -------------------------------
 p-NO2-Ph-OTf-RB3LYP-aug-cc-pVDZ
 -------------------------------
 Symbolic Z-matrix:
 Charge =  0 Multiplicity = 1

 SCF Done:  E(RB3LYP) =  -1397.64754956     A.U. after   15 cycles
 SCF Done:  E(RB3LYP) =  -1397.68642269     A.U. after   15 cycles
 SCF Done:  E(RB3LYP) =  -1397.69894353     A.U. after   16 cycles
 SCF Done:  E(RB3LYP) =  -1397.70236861     A.U. after   13 cycles
 SCF Done:  E(RB3LYP) =  -1397.69857367     A.U. after   15 cycles
 SCF Done:  E(RB3LYP) =  -1397.70263162     A.U. after   15 cycles
 SCF Done:  E(RB3LYP) =  -1397.70363149     A.U. after   13 cycles
 SCF Done:  E(RB3LYP) =  -1397.70374492     A.U. after   11 cycles
 SCF Done:  E(RB3LYP) =  -1397.70376133     A.U. after   10 cycles
 SCF Done:  E(RB3LYP) =  -1397.70376397     A.U. after   11 cycles
 SCF Done:  E(RB3LYP) =  -1397.70376424     A.U. after    8 cycles
 SCF Done:  E(RB3LYP) =  -1397.70376425     A.U. after    9 cycles
 SCF Done:  E(RB3LYP) =  -1397.70376425     A.U. after    9 cycles
 SCF Done:  E(RB3LYP) =  -1397.70376425     A.U. after   24 cycles
 SCF Done:  E(RB3LYP) =  -1397.70376425     A.U. after    5 cycles
 SCF Done:  E(RB3LYP) =  -1397.70376425     A.U. after    6 cycles
 SCF Done:  E(RB3LYP) =  -1397.70376425     A.U. after    5 cycles
 SCF Done:  E(RB3LYP) =  -1397.70376425     A.U. after    4 cycles
 SCF Done:  E(RB3LYP) =  -1397.70376425     A.U. after    5 cycles
 Optimization completed.
    -- Stationary point found.
 Normal termination of Gaussian 09 at Sat Apr 22 05:46:23 2017.

 ----------------------------------------------------------------------
 #P Geom=AllCheck Guess=TCheck SCRF=Check GenChk RB3LYP/Aug-CC-pVDZ Fre
 q
 ----------------------------------------------------------------------

 p-NO2-Ph-OTf-RB3LYP-aug-cc-pVDZ
 -------------------------------
 Redundant internal coordinates taken from checkpoint file:
 /home/ubuntu/g09/Gau-28987.chk
 Charge =  0 Multiplicity = 1

                         Standard orientation:
 ---------------------------------------------------------------------
 Center     Atomic      Atomic             Coordinates (Angstroms)
 Number     Number       Type             X           Y           Z
 ---------------------------------------------------------------------
      1          6           0        2.547758    1.223294   -0.196973
      2          6           0        1.162708    1.222920   -0.356996
      3          6           0        0.494296   -0.000004   -0.437175
      4          6           0        1.162707   -1.222928   -0.356976
      5          6           0        2.547757   -1.223300   -0.196953
      6          6           0        3.215892   -0.000003   -0.120404
      7          1           0        3.110589    2.150794   -0.132527
      8          1           0        0.602392    2.153183   -0.422417
      9          1           0        0.602391   -2.153191   -0.422382
     10         16           0       -1.892010    0.000017    0.672217
     11          6           0       -3.486211   -0.000012   -0.373592
     12          8           0       -0.889316   -0.000007   -0.680281
     13          8           0       -1.787728   -1.287616    1.377978
     14          8           0       -1.787740    1.287680    1.377924
     15          9           0       -3.528367    1.092018   -1.133752
     16          9           0       -3.528359   -1.092076   -1.133704
     17          9           0       -4.510261    0.000003    0.481686
     18          1           0        3.110588   -2.150800   -0.132493
     19          7           0        4.684714   -0.000002    0.045160
     20          8           0        5.250308    1.087899    0.108718
     21          8           0        5.250308   -1.087902    0.108733
 ---------------------------------------------------------------------

 SCF Done:  E(RB3LYP) =  -1397.70376425     A.U. after    1 cycles

 The electronic state is 1-A.
 Alpha  occ. eigenvalues --  -89.18550 -24.80581 -24.80581 -24.80544 -19.25402
 Alpha  occ. eigenvalues --  -19.21044 -19.21044 -19.20213 -19.20213 -14.59031
 Alpha  occ. eigenvalues --  -10.51426 -10.30691 -10.27938 -10.24712 -10.24710
 Alpha  occ. eigenvalues --  -10.24416 -10.24415  -8.21435  -6.17869  -6.17680
 Alpha  occ. eigenvalues --   -6.17612  -1.38567  -1.29956  -1.29893  -1.25260
 Alpha  occ. eigenvalues --   -1.18819  -1.10138  -1.08006  -1.06590  -0.92135
 Alpha  occ. eigenvalues --   -0.84143  -0.80784  -0.80196  -0.74508  -0.70348
 Alpha  occ. eigenvalues --   -0.67240  -0.66271  -0.66056  -0.64415  -0.61834
 Alpha  occ. eigenvalues --   -0.58927  -0.57605  -0.55690  -0.54782  -0.53394
 Alpha  occ. eigenvalues --   -0.53346  -0.52634  -0.52323  -0.50981  -0.49831
 Alpha  occ. eigenvalues --   -0.49632  -0.49513  -0.49026  -0.47856  -0.47349
 Alpha  occ. eigenvalues --   -0.44880  -0.42649  -0.42292  -0.39766  -0.39658
 Alpha  occ. eigenvalues --   -0.37721  -0.36945  -0.34857  -0.33747  -0.33472
 Alpha  occ. eigenvalues --   -0.31736  -0.30869  -0.30656
 Alpha virt. eigenvalues --   -0.12025  -0.06420  -0.05650  -0.03122  -0.02833
 Alpha virt. eigenvalues --   -0.01460  -0.00275  -0.00260   0.01074   0.01739
 Alpha virt. eigenvalues --    0.02011   0.02848   0.03654   0.03805   0.04851

 Mulliken atomic charges:
              1
     1  C    1.353792
     2  C    0.835244
     3  C   -0.374474
     4  C    0.835249
     5  C    1.353791
     6  C    0.509330
     7  H   -0.845141
     8  H   -0.842957
     9  H   -0.842958
    10  S    2.214649
    11  C    1.130434
    12  O   -0.914278
    13  O   -0.857450
    14  O   -0.857450
    15  F   -0.419765
    16  F   -0.419766
    17  F   -0.386699
    18  H   -0.845141
    19  N    0.713865
    20  O   -0.670137
    21  O   -0.670137
 Sum of Mulliken atomic charges =   0.00000

 Dipole moment (field-independent basis, Debye):
    X=             -2.8399    Y=              0.0000    Z=             -2.1323  Tot=              3.5513
 Quadrupole moment (field-independent basis, Debye-Ang):
   XX=           -126.5826   YY=            -99.4595   ZZ=           -105.1440
   XY=              0.0001   XZ=              1.3843   YZ=              0.0000

  Exact polarizability: 200.520   0.000 134.125   2.888   0.000  90.328
 Approx polarizability: 263.041   0.000 265.604   9.181  -0.001 148.573

                     1                      2                      3
                     A                      A                      A
 Frequencies --    10.1081                21.3401                41.8343
 Red. masses --     8.9021                 9.1394                13.6810
 Frc consts  --     0.0005                 0.0025                 0.0141
 IR Inten    --     0.0153                 0.2258                 0.9299

                     4                      5                      6
                     A                      A                      A
 Frequencies --    48.1431                58.0816               104.9431
 Red. masses --    15.4820                 7.3937                12.6690
 Frc consts  --     0.0211                 0.0147                 0.0822
 IR Inten    --     0.4608                 0.0251                 1.0560

                     7                      8                      9
                     A                      A                      A
 Frequencies --   142.5441               167.9089               203.9219
 Red. masses --    10.7270                16.5723                11.6186
 Frc consts  --     0.1284                 0.2753                 0.2847
 IR Inten    --     3.8062                 2.6427                 1.3044

                    10                     11                     12
                     A                      A                      A
 Frequencies --   242.5764               283.7487               283.8334
 Red. masses --    17.0228                 9.6093                11.6258
 Frc consts  --     0.5902                 0.4558                 0.5518
 IR Inten    --     8.3720                 0.7423                 1.7657

                    13                     14                     15
                     A                      A                      A
 Frequencies --   297.9332               359.6750               384.4135
 Red. masses --     9.7617                10.6241                10.7378
 Frc consts  --     0.5105                 0.8098                 0.9349
 IR Inten    --     0.1638                 0.9274                 7.4331

                    16                     17                     18
                     A                      A                      A
 Frequencies --   425.7999               443.0878               452.0201
 Red. masses --     2.9629                 8.6250                11.3541
 Frc consts  --     0.3165                 0.9977                 1.3668
 IR Inten    --     0.2355                 5.7530                12.5956

                    19                     20                     21
                     A                      A                      A
 Frequencies --   505.5644               527.0863               532.4329
 Red. masses --     5.0433                12.7322                 7.0386
 Frc consts  --     0.7595                 2.0841                 1.1756
 IR Inten    --    42.4404                17.2116                 0.1339

                    22                     23                     24
                     A                      A                      A
 Frequencies --   539.3055               578.6125               628.7133
 Red. masses --    16.5654                12.3462                 7.0469
 Frc consts  --     2.8387                 2.4353                 1.6412
 IR Inten    --     0.0063               113.9964                17.6792

                    25                     26                     27
                     A                      A                      A
 Frequencies --   638.5397               692.5604               702.0330
 Red. masses --     7.2528                10.9603                 3.3844
 Frc consts  --     1.7423                 3.0973                 0.9827
 IR Inten    --     0.0027               271.6044                 9.6424

                    28                     29                     30
                     A                      A                      A
 Frequencies --   752.6059               778.3896               828.1560
 Red. masses --    16.0979                 5.4331                 1.2415
 Frc consts  --     5.3722                 1.9395                 0.5017
 IR Inten    --    16.9250                22.2265                 0.1682

                    31                     32                     33
                     A                      A                      A
 Frequencies --   828.5946               871.3838               880.1911
 Red. masses --     8.1998                 9.4459                 1.9138
 Frc consts  --     3.3169                 4.2259                 0.8736
 IR Inten    --    84.5132               132.0887                39.3048

                    34                     35                     36
                     A                      A                      A
 Frequencies --   981.9755               990.9505              1022.9614
 Red. masses --     1.3866                 1.3630                 2.7093
 Frc consts  --     0.7878                 0.7886                 1.6704
 IR Inten    --     1.4363                 0.1219                15.0782

                    37                     38                     39
                     A                      A                      A
 Frequencies --  1061.2216              1112.0602              1118.4319
 Red. masses --    15.0756                 1.2280                 2.9694
 Frc consts  --    10.0032                 0.8947                 2.1885
 IR Inten    --   226.5198                 9.9080                15.5347

                    40                     41                     42
                     A                      A                      A
 Frequencies --  1145.7778              1170.9523              1202.2679
 Red. masses --     5.1128                 1.5867                 4.7190
 Frc consts  --     3.9546                 1.2818                 4.0189
 IR Inten    --   337.1418                 6.1826                48.4449

                    43                     44                     45
                     A                      A                      A
 Frequencies --  1210.4340              1214.6087              1294.6238
 Red. masses --     8.4753                13.3060                 1.6090
 Frc consts  --     7.3162                11.5656                 1.5889
 IR Inten    --   261.3662               154.5773                33.1618

                    46                     47                     48
                     A                      A                      A
 Frequencies --  1303.5464              1366.7001              1383.7978
 Red. masses --     4.9194                 9.5391                14.4208
 Frc consts  --     4.9251                10.4979                16.2699
 IR Inten    --   177.9782                23.4515               310.9699

                    49                     50                     51
                     A                      A                      A
 Frequencies --  1435.9600              1504.8672              1595.6824
 Red. masses --     3.6161                 2.4668                12.4887
 Frc consts  --     4.3931                 3.2914                18.7353
 IR Inten    --     0.0238                69.9401               188.0173

                    52                     53                     54
                     A                      A                      A
 Frequencies --  1631.9555              1655.2909              3218.1233
 Red. masses --     6.2531                 8.8510                 1.0914
 Frc consts  --     9.8122                14.2886                 6.6597
 IR Inten    --    49.0393                68.4730                 0.0228

                    55                     56                     57
                     A                      A                      A
 Frequencies --  3218.5999              3236.6363              3237.3178
 Red. masses --     1.0914                 1.0942                 1.0952
 Frc consts  --     6.6612                 6.7533                 6.7625
 IR Inten    --     0.0371                 4.3963                 5.6641

 - Thermochemistry -
 -------------------
 Temperature   298.150 Kelvin.  Pressure   1.00000 Atm.
 Atom     1 has atomic number  6 and mass  12.00000

 Molecular mass:   270.97623 amu.
 Principal axes and moments of inertia in atomic units:
                           1         2         3
     Eigenvalues --  1326.44107********************
           X            1.00000   0.00000  -0.00273
           Y            0.00000   1.00000   0.00000
           Z            0.00273   0.00000   1.00000
 This molecule is an asymmetric top.
 Rotational symmetry number  1.
 Warning -- assumption of classical behavior for rotation
           may cause significant error
 Rotational temperatures (Kelvin)      0.06530     0.00836     0.00813
 Rotational constants (GHZ):           1.36059     0.17410     0.16932
 Zero-point vibrational energy     314443.4 (Joules/Mol)
                                   75.15377 (Kcal/Mol)
 Warning -- explicit consideration of  23 degrees of freedom as
           vibrations may cause significant error
 Vibrational temperatures:     14.54    30.70    60.19    69.27    83.57
          (Kelvin)            150.99   205.09   241.58   293.40   349.01
                              408.25   408.37   428.66   517.49   553.08
                              612.63   637.50   650.36   727.39   758.36
                              766.05   775.94   832.49   904.58   918.72
                              996.44  1010.07  1082.83  1119.93  1191.53
                             1192.16  1253.73  1266.40  1412.84  1425.75
                             1471.81  1526.86  1600.00  1609.17  1648.52
                             1684.74  1729.79  1741.54  1747.55  1862.67
                             1875.51  1966.37  1990.97  2066.02  2165.17
                             2295.83  2348.02  2381.59  4630.16  4630.84
                             4656.79  4657.77

 Zero-point correction=                           0.119765 (Hartree/Particle)
 Thermal correction to Energy=                    0.135046
 Thermal correction to Enthalpy=                  0.135990
 Thermal correction to Gibbs Free Energy=         0.072830
 Sum of electronic and zero-point Energies=          -1397.583999
 Sum of electronic and thermal Energies=             -1397.568718
 Sum of electronic and thermal Enthalpies=           -1397.567774
 Sum of electronic and thermal Free Energies=        -1397.630934

                     E (Thermal)             CV                S
                      KCal/Mol        Cal/Mol-Kelvin    Cal/Mol-Kelvin
 Total                   84.743             54.530            132.933
 Electronic               0.000              0.000              0.000
 Translational            0.889              2.981             42.690
 Rotational               0.889              2.981             33.349
 Vibrational             82.965             48.568             56.894
 Vibration     1          0.593              1.987              7.990
 Vibration     2          0.593              1.985              6.505
 Vibration     3          0.594              1.980              5.170
 Vibration     4          0.595              1.978              4.892
 Vibration     5          0.596              1.974              4.521
 Vibration     6          0.605              1.945              3.360
 Vibration     7          0.616              1.911              2.769
 Vibration     8          0.625              1.882              2.459
 Vibration     9          0.640              1.834              2.097
 Vibration    10          0.659              1.775              1.784
 Vibration    11          0.682              1.704              1.511
 Vibration    12          0.682              1.704              1.510
 Vibration    13          0.691              1.678              1.428
 Vibration    14          0.734              1.555              1.124
 Vibration    15          0.753              1.503              1.022
 Vibration    16          0.788              1.414              0.872
 Vibration    17          0.803              1.376              0.817
 Vibration    18          0.811              1.356              0.790
 Vibration    19          0.861              1.238              0.644
 Vibration    20          0.882              1.190              0.594
 Vibration    21          0.887              1.178              0.582
 Vibration    22          0.894              1.163              0.567
 Vibration    23          0.935              1.078              0.488

 Normal termination of Gaussian 09 at Sat Apr 22 06:51:17 2017.
