 Gaussian 09, Revision B.01,
 Gaussian 09:  EM64L-G09RevB.01 12-Aug-2010

 ----------------------------------------------------------------------
 #p Temperature=348.15 int=(grid=ultrafine) CPHF=(grid=fine) freq rb3ly
 p/aug-cc-pvdz
 ----------------------------------------------------------------------

 ------------------------------------
 p-NO2-Ph-N2-BF4-RB3LYP-aug-cc-pVDZ--
 ------------------------------------
 Symbolic Z-matrix:
 Charge =  0 Multiplicity = 1

                         Standard orientation:
 ---------------------------------------------------------------------
 Center     Atomic      Atomic             Coordinates (Angstroms)
 Number     Number       Type             X           Y           Z
 ---------------------------------------------------------------------
      1          6           0       -1.541330   -0.887039   -0.427180
      2          6           0       -0.246989   -0.378240   -0.521970
      3          6           0       -0.076929    0.976710   -0.210890
      4          6           0       -1.110409    1.839150    0.194610
      5          6           0       -2.389299    1.305541    0.291500
      6          6           0       -2.575719   -0.043319   -0.023890
      7          1           0       -1.747590   -1.930049   -0.653290
      8          1           0        0.618080   -0.974620   -0.810920
      9          1           0       -0.912479    2.883110    0.428850
     10          1           0       -3.234649    1.912561    0.604240
     11          7           0       -3.953239   -0.602789    0.077290
     12          8           0       -4.101000   -1.780929   -0.216610
     13          8           0       -4.838809    0.159561    0.445660
     14          7           0        1.196381    1.549840   -0.314580
     15          7           0        2.152391    2.105720   -0.408280
     16          5           0        3.180821   -0.693510    0.193320
     17          9           0        2.560810   -0.828750   -1.106270
     18          9           0        3.894260   -1.823741    0.526850
     19          9           0        3.974081    0.479119    0.163090
     20          9           0        2.100441   -0.459820    1.120560
 ---------------------------------------------------------------------

 SCF Done:  E(RB3LYP) =  -970.133853626     A.U. after   17 cycles

 The electronic state is 1-A.
 Alpha  occ. eigenvalues --  -24.64803 -24.64664 -24.64205 -24.63080 -19.23985
 Alpha  occ. eigenvalues --  -19.23951 -14.62765 -14.59712 -14.56916 -10.36524
 Alpha  occ. eigenvalues --  -10.33176 -10.30978 -10.29361 -10.29358 -10.28811
 Alpha  occ. eigenvalues --   -6.84712  -1.29114  -1.25606  -1.17806  -1.12628
 Alpha  occ. eigenvalues --   -1.12522  -1.12300  -1.11992  -0.99720  -0.93299
 Alpha  occ. eigenvalues --   -0.85863  -0.83725  -0.72776  -0.72292  -0.65795
 Alpha  occ. eigenvalues --   -0.62164  -0.61001  -0.60545  -0.59423  -0.57456
 Alpha  occ. eigenvalues --   -0.57047  -0.54466  -0.53983  -0.53528  -0.52307
 Alpha  occ. eigenvalues --   -0.50374  -0.47836  -0.47387  -0.47158  -0.46855
 Alpha  occ. eigenvalues --   -0.45009  -0.39213  -0.39061  -0.37351  -0.37275
 Alpha  occ. eigenvalues --   -0.37018  -0.36941  -0.36450  -0.36432  -0.35466
 Alpha  occ. eigenvalues --   -0.35419  -0.33979  -0.33595  -0.33502
 Alpha virt. eigenvalues --   -0.18771  -0.14891  -0.12933  -0.10731  -0.05582
 Alpha virt. eigenvalues --   -0.04722  -0.01817  -0.01206  -0.00257   0.01023
 Alpha virt. eigenvalues --    0.02039   0.02324   0.03710   0.04331   0.04428

 Mulliken atomic charges:
              1
     1  C    0.700167
     2  C    1.136304
     3  C    0.693995
     4  C    0.711114
     5  C    1.142542
     6  C    0.608278
     7  H   -0.820619
     8  H   -0.870455
     9  H   -0.821804
    10  H   -0.836222
    11  N    0.726102
    12  O   -0.637267
    13  O   -0.655368
    14  N    0.444227
    15  N   -0.656054
    16  B    1.498387
    17  F   -0.609523
    18  F   -0.530621
    19  F   -0.564794
    20  F   -0.658388
 Sum of Mulliken atomic charges =   0.00000

 Dipole moment (field-independent basis, Debye):
    X=             -8.0242    Y=              7.0825    Z=             -1.6378  Tot=             10.8274
 Quadrupole moment (field-independent basis, Debye-Ang):
   XX=           -135.0905   YY=            -79.5078   ZZ=            -89.8721
   XY=              4.6620   XZ=             -2.7015   YZ=              1.6013

  Exact polarizability: 186.446  14.298 126.186  -8.438   8.022  74.458
 Approx polarizability: 277.927  25.468 232.753 -21.123  23.860 117.943

                     1                      2                      3
                     A                      A                      A
 Frequencies --    24.8427                38.2967                50.1625
 Red. masses --     9.3140                16.5571                 8.2671
 Frc consts  --     0.0034                 0.0143                 0.0123
 IR Inten    --     3.7816                 1.0159                 2.0114

                     4                      5                      6
                     A                      A                      A
 Frequencies --    67.8329                68.7196               105.8115
 Red. masses --     8.3457                16.4657                 9.5405
 Frc consts  --     0.0226                 0.0458                 0.0629
 IR Inten    --     4.9020                 1.2451                 4.1046

                     7                      8                      9
                     A                      A                      A
 Frequencies --   113.6549               130.7573               196.0575
 Red. masses --    14.7447                11.5021                12.4767
 Frc consts  --     0.1122                 0.1159                 0.2826
 IR Inten    --     3.4223                36.5078                13.1054

                    10                     11                     12
                     A                      A                      A
 Frequencies --   230.9595               262.6894               326.4468
 Red. masses --     8.5485                 7.4671                18.9230
 Frc consts  --     0.2687                 0.3036                 1.1881
 IR Inten    --     0.7547                 3.7445                 0.5140

                    13                     14                     15
                     A                      A                      A
 Frequencies --   332.3506               340.4661               410.4278
 Red. masses --    13.3402                18.6007                 3.1141
 Frc consts  --     0.8682                 1.2704                 0.3091
 IR Inten    --    11.0915                 2.3814                 0.3909

                    16                     17                     18
                     A                      A                      A
 Frequencies --   430.6015               477.7262               481.0842
 Red. masses --     5.1729                18.0676                17.4950
 Frc consts  --     0.5651                 2.4295                 2.3857
 IR Inten    --     0.0764                 2.1205                 3.1003

                    19                     20                     21
                     A                      A                      A
 Frequencies --   491.0884               495.8637               537.0312
 Red. masses --    14.3455                12.9639                 4.9699
 Frc consts  --     2.0384                 1.8781                 0.8445
 IR Inten    --    12.9555                 6.5999                10.5162

                    22                     23                     24
                     A                      A                      A
 Frequencies --   549.8904               570.5135               643.2499
 Red. masses --     6.0840                 7.9792                 7.3823
 Frc consts  --     1.0839                 1.5302                 1.7997
 IR Inten    --     1.9968                 0.8110                 5.9351

                    25                     26                     27
                     A                      A                      A
 Frequencies --   678.7785               722.1987               764.2148
 Red. masses --     4.3158                18.7115                 3.4769
 Frc consts  --     1.1716                 5.7500                 1.1964
 IR Inten    --    10.5755                13.2870                22.9951

                    28                     29                     30
                     A                      A                      A
 Frequencies --   772.5738               836.1212               864.7278
 Red. masses --     7.2632                 1.3586                10.2007
 Frc consts  --     2.5542                 0.5596                 4.4941
 IR Inten    --    26.6294                 6.2687                35.1891

                    31                     32                     33
                     A                      A                      A
 Frequencies --   901.4266               937.9613               990.4211
 Red. masses --     1.6561                 8.9078                 1.3815
 Frc consts  --     0.7929                 4.6173                 0.7984
 IR Inten    --    11.9970               304.3532                 1.4480

                    34                     35                     36
                     A                      A                      A
 Frequencies --   998.4800              1022.7509              1030.8328
 Red. masses --     8.1885                 2.9746                 1.3898
 Frc consts  --     4.8099                 1.8332                 0.8701
 IR Inten    --   309.1068                13.4722                14.6962

                    37                     38                     39
                     A                      A                      A
 Frequencies --  1104.5485              1118.9261              1126.1418
 Red. masses --     2.8204                 2.9927                 1.4763
 Frc consts  --     2.0274                 2.2076                 1.1031
 IR Inten    --    75.3483                18.0701                12.9877

                    40                     41                     42
                     A                      A                      A
 Frequencies --  1168.3462              1195.2643              1311.0679
 Red. masses --     8.8460                 1.3709                 1.2878
 Frc consts  --     7.1144                 1.1539                 1.3042
 IR Inten    --   506.0398                 8.2511                 8.4717

                    43                     44                     45
                     A                      A                      A
 Frequencies --  1373.2063              1384.3764              1441.4896
 Red. masses --     8.8550                14.4365                 3.4640
 Frc consts  --     9.8381                16.3012                 4.2409
 IR Inten    --    51.1987               209.9972                 2.5345

                    46                     47                     48
                     A                      A                      A
 Frequencies --  1483.2403              1603.2979              1620.1911
 Red. masses --     2.1225                10.3733                 5.9062
 Frc consts  --     2.7512                15.7107                 9.1347
 IR Inten    --     8.0006               142.1296                34.1023

                    49                     50                     51
                     A                      A                      A
 Frequencies --  1650.3028              2373.6909              3192.5673
 Red. masses --    10.3111                13.9657                 1.0978
 Frc consts  --    16.5457                46.3620                 6.5923
 IR Inten    --   107.6431                47.6529               167.2467

                    52                     53                     54
                     A                      A                      A
 Frequencies --  3218.3491              3238.0469              3240.7317
 Red. masses --     1.0928                 1.0934                 1.0951
 Frc consts  --     6.6692                 6.7547                 6.7764
 IR Inten    --     2.1357                15.8558                11.6655

 - Thermochemistry -
 -------------------
 Temperature   348.150 Kelvin.  Pressure   1.00000 Atm.
 Atom     1 has atomic number  6 and mass  12.00000

 Molecular mass:   237.03327 amu.
 Principal axes and moments of inertia in atomic units:
                           1         2         3
     Eigenvalues --  1472.413667608.136418580.32452
           X            0.99999   0.00240  -0.00218
           Y           -0.00236   0.99983   0.01834
           Z            0.00222  -0.01834   0.99983
 This molecule is an asymmetric top.
 Rotational symmetry number  1.
 Warning -- assumption of classical behavior for rotation
           may cause significant error
 Rotational temperatures (Kelvin)      0.05882     0.01138     0.01009
 Rotational constants (GHZ):           1.22570     0.23721     0.21033
 Zero-point vibrational energy     303497.4 (Joules/Mol)
                                   72.53761 (Kcal/Mol)
 Warning -- explicit consideration of  26 degrees of freedom as
           vibrations may cause significant error
 Vibrational temperatures:     35.74    55.10    72.17    97.60    98.87
          (Kelvin)            152.24   163.52   188.13   282.08   332.30
                              377.95   469.68   478.18   489.85   590.51
                              619.54   687.34   692.17   706.57   713.44
                              772.67   791.17   820.84   925.49   976.61
                             1039.08  1099.53  1111.56  1202.99  1244.15
                             1296.95  1349.52  1424.99  1436.59  1471.51
                             1483.14  1589.20  1609.88  1620.26  1680.99
                             1719.72  1886.33  1975.74  1991.81  2073.98
                             2134.05  2306.79  2331.09  2374.41  3415.21
                             4593.39  4630.48  4658.82  4662.68

 Zero-point correction=                           0.115596 (Hartree/Particle)
 Thermal correction to Energy=                    0.134994
 Thermal correction to Enthalpy=                  0.136097
 Thermal correction to Gibbs Free Energy=         0.060198
 Sum of electronic and zero-point Energies=           -970.018258
 Sum of electronic and thermal Energies=              -969.998859
 Sum of electronic and thermal Enthalpies=            -969.997757
 Sum of electronic and thermal Free Energies=         -970.073656

                     E (Thermal)             CV                S
                      KCal/Mol        Cal/Mol-Kelvin    Cal/Mol-Kelvin
 Total                   84.710             58.624            136.801
 Electronic               0.000              0.000              0.000
 Translational            1.038              2.981             43.061
 Rotational               1.038              2.981             33.392
 Vibrational             82.635             52.663             60.348
 Vibration     1          0.692              1.985              6.512
 Vibration     2          0.693              1.983              5.653
 Vibration     3          0.694              1.980              5.118
 Vibration     4          0.696              1.974              4.521
 Vibration     5          0.696              1.974              4.495
 Vibration     6          0.703              1.956              3.647
 Vibration     7          0.705              1.951              3.507
 Vibration     8          0.709              1.940              3.234
 Vibration     9          0.729              1.882              2.459
 Vibration    10          0.744              1.843              2.154
 Vibration    11          0.758              1.803              1.919
 Vibration    12          0.794              1.711              1.536
 Vibration    13          0.797              1.702              1.506
 Vibration    14          0.802              1.689              1.465
 Vibration    15          0.850              1.572              1.160
 Vibration    16          0.865              1.536              1.085
 Vibration    17          0.903              1.450              0.930
 Vibration    18          0.906              1.444              0.920
 Vibration    19          0.914              1.426              0.890
 Vibration    20          0.919              1.417              0.876
 Vibration    21          0.955              1.339              0.766
 Vibration    22          0.967              1.315              0.735
 Vibration    23          0.986              1.275              0.687
 Vibration    24          1.058              1.138              0.542
 Vibration    25          1.095              1.072              0.483
 Vibration    26          1.142              0.993              0.419

 Optimization completed.
    -- Stationary point found.
 Normal termination of Gaussian 09 at Fri May  5 13:12:47 2017.
