 Gaussian 09, Revision B.01,
 Gaussian 09:  EM64L-G09RevB.01 12-Aug-2010

 ----------------------------------------------------------------------
 #p Temperature=353.15 int=(grid=ultrafine) CPHF=(grid=fine) freq rb3ly
 p/aug-cc-pvdz
 ----------------------------------------------------------------------

 ----------------------------------
 p-NO2-Ph-N2-BF4-RB3LYP-aug-cc-pVDZ
 ----------------------------------
 Symbolic Z-matrix:
 Charge =  0 Multiplicity = 1

                         Standard orientation:
 ---------------------------------------------------------------------
 Center     Atomic      Atomic             Coordinates (Angstroms)
 Number     Number       Type             X           Y           Z
 ---------------------------------------------------------------------
      1          6           0       -0.629321    1.167168   -0.000059
      2          6           0        0.764609    1.093189   -0.000079
      3          6           0        1.356280   -0.169530   -0.000019
      4          6           0        0.612861   -1.358461    0.000061
      5          6           0       -0.776089   -1.275892    0.000081
      6          6           0       -1.371320   -0.012772    0.000021
      7          1           0       -1.139281    2.126868   -0.000099
      8          1           0        1.400639    1.971910   -0.000139
      9          1           0        1.116321   -2.322620    0.000101
     10          1           0       -1.395949   -2.168552    0.000151
     11          7           0       -2.852330    0.073157    0.000051
     12          8           0       -3.353751    1.191797   -0.000009
     13          8           0       -3.478949   -0.981473    0.000121
     14          7           0        2.790460   -0.326499   -0.000049
     15          7           0        3.563071   -1.156329   -0.000059
     16          9           0        3.381039    1.323921   -0.000059
 ---------------------------------------------------------------------

 SCF Done:  E(RB3LYP) =  -645.489202379     A.U. after   17 cycles

 The electronic state is 1-A.
 Alpha  occ. eigenvalues --  -24.63279 -19.21629 -19.21618 -14.60411 -14.54266
 Alpha  occ. eigenvalues --  -14.45191 -10.31567 -10.29827 -10.26782 -10.26252
 Alpha  occ. eigenvalues --  -10.25956 -10.25762  -1.26703  -1.17288  -1.09500
 Alpha  occ. eigenvalues --   -1.07574  -0.94660  -0.87878  -0.82323  -0.79280
 Alpha  occ. eigenvalues --   -0.69443  -0.68499  -0.62606  -0.59810  -0.57084
 Alpha  occ. eigenvalues --   -0.56702  -0.54526  -0.53121  -0.51750  -0.50890
 Alpha  occ. eigenvalues --   -0.49180  -0.48414  -0.46706  -0.43392  -0.41658
 Alpha  occ. eigenvalues --   -0.35088  -0.34890  -0.34189  -0.33982  -0.33142
 Alpha  occ. eigenvalues --   -0.33114  -0.32263  -0.31275
 Alpha virt. eigenvalues --   -0.14530  -0.09465  -0.08415  -0.07687  -0.02243
 Alpha virt. eigenvalues --   -0.02112  -0.00310   0.00897   0.01516   0.02939
 Alpha virt. eigenvalues --    0.03022   0.04747   0.05937   0.06181   0.06527

 Mulliken atomic charges:
              1
     1  C    0.787215
     2  C    0.905760
     3  C    0.415252
     4  C    1.035203
     5  C    0.942819
     6  C    0.606367
     7  H   -0.819253
     8  H   -0.842889
     9  H   -0.865189
    10  H   -0.826603
    11  N    0.702039
    12  O   -0.660127
    13  O   -0.661920
    14  N    0.576177
    15  N   -0.763121
    16  F   -0.531731
 Sum of Mulliken atomic charges =   0.00000

 Dipole moment (field-independent basis, Debye):
    X=             -0.8543    Y=             -2.3896    Z=              0.0000  Tot=              2.5377
 Quadrupole moment (field-independent basis, Debye-Ang):
   XX=           -100.2044   YY=            -64.6430   ZZ=            -66.6255
   XY=             -6.6551   XZ=              0.0005   YZ=             -0.0003

  Exact polarizability: 159.250  -2.528 119.596  -0.002  -0.003  55.941
 Approx polarizability: 233.322 -11.609 256.771  -0.003  -0.006  88.326

                     1                      2                      3
                     A                      A                      A
 Frequencies --    22.7625                52.5850                85.2247
 Red. masses --    10.7288                 7.4812                 9.9881
 Frc consts  --     0.0033                 0.0122                 0.0427
 IR Inten    --     3.8387                 0.0735                 7.6591

                     4                      5                      6
                     A                      A                      A
 Frequencies --   165.6497               251.2024               271.2922
 Red. masses --    12.0085                 7.7959                10.5327
 Frc consts  --     0.1941                 0.2898                 0.4567
 IR Inten    --    16.8815                 0.0194                 3.5983

                     7                      8                      9
                     A                      A                      A
 Frequencies --   293.7198               354.3007               422.3220
 Red. masses --     9.4429                11.0796                 2.9585
 Frc consts  --     0.4800                 0.8194                 0.3109
 IR Inten    --    10.6170                74.0564                 0.0080

                    10                     11                     12
                     A                      A                      A
 Frequencies --   432.0014               444.0548               516.1249
 Red. masses --    12.1074                 4.5609                 9.5086
 Frc consts  --     1.3313                 0.5299                 1.4924
 IR Inten    --    19.0655                 0.1743                15.8761

                    13                     14                     15
                     A                      A                      A
 Frequencies --   560.2826               572.5590               625.0620
 Red. masses --     6.9613                 5.0220                 7.4478
 Frc consts  --     1.2875                 0.9700                 1.7145
 IR Inten    --    40.0836                13.9810                 7.2811

                    16                     17                     18
                     A                      A                      A
 Frequencies --   673.6992               694.1873               772.9549
 Red. masses --     8.3631                 3.8799                 4.1330
 Frc consts  --     2.2364                 1.1016                 1.4549
 IR Inten    --    82.0954                15.9684                17.4895

                    19                     20                     21
                     A                      A                      A
 Frequencies --   794.4832               843.2057               869.9670
 Red. masses --     8.0398                 1.2735                10.0780
 Frc consts  --     2.9900                 0.5335                 4.4940
 IR Inten    --    85.9834                 1.5762                23.7933

                    22                     23                     24
                     A                      A                      A
 Frequencies --   895.7627               998.6418              1020.9549
 Red. masses --     1.7074                 1.3890                 1.3730
 Frc consts  --     0.8072                 0.8162                 0.8432
 IR Inten    --    36.1660                 0.0448                 0.1743

                    25                     26                     27
                     A                      A                      A
 Frequencies --  1021.9118              1107.4905              1117.6879
 Red. masses --     2.8462                 1.6804                 1.8263
 Frc consts  --     1.7512                 1.2144                 1.3442
 IR Inten    --    10.3657                41.0600                10.4027

                    28                     29                     30
                     A                      A                      A
 Frequencies --  1130.9041              1182.8008              1295.3719
 Red. masses --     2.8399                 1.4452                 1.2687
 Frc consts  --     2.1400                 1.1913                 1.2543
 IR Inten    --     7.7793                 0.0004                 1.1747

                    31                     32                     33
                     A                      A                      A
 Frequencies --  1372.9226              1385.5356              1435.2404
 Red. masses --     8.7878                14.5629                 3.9302
 Frc consts  --     9.7593                16.4715                 4.7700
 IR Inten    --    38.2095               256.0620                 2.9693

                    34                     35                     36
                     A                      A                      A
 Frequencies --  1493.1323              1602.7379              1627.5552
 Red. masses --     2.3716                12.0776                 6.2906
 Frc consts  --     3.1153                18.2791                 9.8178
 IR Inten    --    17.0721               199.2579                 5.0612

                    37                     38                     39
                     A                      A                      A
 Frequencies --  1655.8252              2157.7782              3220.6079
 Red. masses --     9.2829                13.9646                 1.0915
 Frc consts  --    14.9956                38.3084                 6.6702
 IR Inten    --    57.1590               104.4483                 1.7165

                    40                     41                     42
                     A                      A                      A
 Frequencies --  3236.2215              3238.3339              3262.6051
 Red. masses --     1.0920                 1.0950                 1.0948
 Frc consts  --     6.7381                 6.7655                 6.8662
 IR Inten    --     6.3154                 6.9900                22.5301

 - Thermochemistry -
 -------------------
 Temperature   353.150 Kelvin.  Pressure   1.00000 Atm.
 Atom     1 has atomic number  6 and mass  12.00000

 Molecular mass:   169.02875 amu.
 Principal axes and moments of inertia in atomic units:
                           1         2         3
     Eigenvalues --   653.697583806.770194460.46777
           X            0.99999  -0.00414   0.00002
           Y            0.00414   0.99999   0.00004
           Z           -0.00002  -0.00004   1.00000
 This molecule is an asymmetric top.
 Rotational symmetry number  1.
 Warning -- assumption of classical behavior for rotation
           may cause significant error
 Rotational temperatures (Kelvin)      0.13250     0.02275     0.01942
 Rotational constants (GHZ):           2.76082     0.47409     0.40461
 Zero-point vibrational energy     270222.4 (Joules/Mol)
                                   64.58471 (Kcal/Mol)
 Warning -- explicit consideration of  17 degrees of freedom as
           vibrations may cause significant error
 Vibrational temperatures:     32.75    75.66   122.62   238.33   361.42
          (Kelvin)            390.33   422.60   509.76   607.63   621.55
                              638.89   742.59   806.12   823.78   899.32
                              969.30   998.78  1112.11  1143.08  1213.18
                             1251.69  1288.80  1436.82  1468.92  1470.30
                             1593.43  1608.10  1627.12  1701.78  1863.75
                             1975.33  1993.47  2064.99  2148.28  2305.98
                             2341.69  2382.36  3104.56  4633.73  4656.20
                             4659.23  4694.16

 Zero-point correction=                           0.102922 (Hartree/Particle)
 Thermal correction to Energy=                    0.116407
 Thermal correction to Enthalpy=                  0.117525
 Thermal correction to Gibbs Free Energy=         0.056148
 Sum of electronic and zero-point Energies=           -645.386280
 Sum of electronic and thermal Energies=              -645.372795
 Sum of electronic and thermal Enthalpies=            -645.371677
 Sum of electronic and thermal Free Energies=         -645.433054

                     E (Thermal)             CV                S
                      KCal/Mol        Cal/Mol-Kelvin    Cal/Mol-Kelvin
 Total                   73.047             41.819            109.061
 Electronic               0.000              0.000              0.000
 Translational            1.053              2.981             42.124
 Rotational               1.053              2.981             31.290
 Vibrational             70.941             35.857             35.647
 Vibration     1          0.702              1.986              6.713
 Vibration     2          0.704              1.980              5.053
 Vibration     3          0.709              1.967              4.099
 Vibration     4          0.728              1.913              2.806
 Vibration     5          0.762              1.822              2.026
 Vibration     6          0.772              1.797              1.886
 Vibration     7          0.784              1.766              1.745
 Vibration     8          0.820              1.675              1.422
 Vibration     9          0.867              1.562              1.137
 Vibration    10          0.874              1.545              1.102
 Vibration    11          0.884              1.524              1.060
 Vibration    12          0.943              1.392              0.840
 Vibration    13          0.983              1.310              0.729
 Vibration    14          0.994              1.287              0.701
 Vibration    15          1.045              1.189              0.592
 Vibration    16          1.095              1.099              0.507
 Vibration    17          1.117              1.062              0.474

 Optimization completed.
    -- Stationary point found.
 Normal termination of Gaussian 09 at Tue Oct 17 18:08:06 2017.
