 Gaussian 09, Revision B.01,
 Gaussian 09:  EM64L-G09RevB.01 12-Aug-2010

 ----------------------------------------------------------------------
 #p opt=(verytight,maxcycles=1000) int=(grid=ultrafine) CPHF=(grid=fine
 ) freq rb3lyp/aug-cc-pvdz
 ----------------------------------------------------------------------

 ----------------------
 BF3-RB3LYP-aug-cc-pVDZ
 ----------------------
 Symbolic Z-matrix:
 Charge =  0 Multiplicity = 1

 SCF Done:  E(RB3LYP) =  -324.510792182     A.U. after    9 cycles
 SCF Done:  E(RB3LYP) =  -324.562431338     A.U. after   10 cycles
 SCF Done:  E(RB3LYP) =  -324.591110372     A.U. after   10 cycles
 SCF Done:  E(RB3LYP) =  -324.590744543     A.U. after   10 cycles
 SCF Done:  E(RB3LYP) =  -324.596010458     A.U. after   10 cycles
 SCF Done:  E(RB3LYP) =  -324.596119236     A.U. after    9 cycles
 SCF Done:  E(RB3LYP) =  -324.596129240     A.U. after    8 cycles
 SCF Done:  E(RB3LYP) =  -324.596129266     A.U. after    5 cycles
 SCF Done:  E(RB3LYP) =  -324.596129269     A.U. after    5 cycles
 SCF Done:  E(RB3LYP) =  -324.596129269     A.U. after    3 cycles
 Optimization completed.
    -- Stationary point found.
 Normal termination of Gaussian 09 at Fri Apr 21 10:46:47 2017.

 ----------------------------------------------------------------------
 #P Geom=AllCheck Guess=TCheck SCRF=Check GenChk RB3LYP/Aug-CC-pVDZ Fre
 q
 ----------------------------------------------------------------------

 BF3-RB3LYP-aug-cc-pVDZ
 ----------------------
 Redundant internal coordinates taken from checkpoint file:
 /home/ubuntu/g09/Gau-998.chk
 Charge =  0 Multiplicity = 1

                         Standard orientation:
 ---------------------------------------------------------------------
 Center     Atomic      Atomic             Coordinates (Angstroms)
 Number     Number       Type             X           Y           Z
 ---------------------------------------------------------------------
      1          5           0        0.000000   -0.000004    0.000000
      2          9           0        0.000000    1.327163    0.000000
      3          9           0        0.000000   -0.663580    1.149365
      4          9           0        0.000000   -0.663580   -1.149365
 ---------------------------------------------------------------------

 SCF Done:  E(RB3LYP) =  -324.596129269     A.U. after    1 cycles

 The electronic state is 1-A'.
 Alpha  occ. eigenvalues --  -24.75463 -24.75458 -24.75458  -6.94700  -1.28694
 Alpha  occ. eigenvalues --   -1.24995  -1.24995  -0.62391  -0.58466  -0.58466
 Alpha  occ. eigenvalues --   -0.54199  -0.47920  -0.47920  -0.47027  -0.47027
 Alpha  occ. eigenvalues --   -0.44008
 Alpha virt. eigenvalues --   -0.02005  -0.00106   0.02458   0.02458   0.03679
 Alpha virt. eigenvalues --    0.10644   0.13846   0.13846   0.18150   0.18150
 Alpha virt. eigenvalues --    0.18396   0.18396   0.19064   0.19974   0.25680

 Mulliken atomic charges:
              1
     1  B    1.038760
     2  F   -0.346253
     3  F   -0.346253
     4  F   -0.346253
 Sum of Mulliken atomic charges =   0.00000

 Dipole moment (field-independent basis, Debye):
    X=              0.0000    Y=              0.0000    Z=              0.0000  Tot=              0.0000
 Quadrupole moment (field-independent basis, Debye-Ang):
   XX=            -18.2574   YY=            -22.0971   ZZ=            -22.0971
   XY=              0.0000   XZ=              0.0000   YZ=              0.0000

  Exact polarizability:  13.252   0.000  17.486   0.000   0.000  17.486
 Approx polarizability:  16.964   0.000  21.493   0.000   0.000  21.493

                     1                      2                      3
                    A'                     A"                     A'
 Frequencies --   454.7581               454.7692               699.8254
 Red. masses --    17.8559                17.8559                11.8135
 Frc consts  --     2.1757                 2.1758                 3.4089
 IR Inten    --    12.3223                12.3212                90.0108

                     4                      5                      6
                    A'                     A"                     A'
 Frequencies --   851.9326              1410.1659              1410.1774
 Red. masses --    18.9984                12.3030                12.3030
 Frc consts  --     8.1241                14.4146                14.4149
 IR Inten    --     0.0000               430.8939               430.9061

 - Thermochemistry -
 -------------------
 Temperature   298.150 Kelvin.  Pressure   1.00000 Atm.
 Atom     1 has atomic number  5 and mass  11.00931

 Molecular mass:    68.00452 amu.
 Principal axes and moments of inertia in atomic units:
                           1         2         3
     Eigenvalues --   179.24789 179.25064 358.49854
           X            0.00000   0.00000   1.00000
           Y            0.00000   1.00000   0.00000
           Z            1.00000   0.00000   0.00000
 This molecule is an asymmetric top.
 Rotational symmetry number  1.
 Rotational temperatures (Kelvin)      0.48321     0.48320     0.24160
 Rotational constants (GHZ):          10.06841    10.06826     5.03417
 Zero-point vibrational energy      31591.2 (Joules/Mol)
                                    7.55047 (Kcal/Mol)
 Warning -- explicit consideration of   2 degrees of freedom as
           vibrations may cause significant error
 Vibrational temperatures:    654.29   654.31  1006.89  1225.74  2028.91
          (Kelvin)           2028.93

 Zero-point correction=                           0.012032 (Hartree/Particle)
 Thermal correction to Energy=                    0.015576
 Thermal correction to Enthalpy=                  0.016520
 Thermal correction to Gibbs Free Energy=        -0.014173
 Sum of electronic and zero-point Energies=           -324.584097
 Sum of electronic and thermal Energies=              -324.580553
 Sum of electronic and thermal Enthalpies=            -324.579609
 Sum of electronic and thermal Free Energies=         -324.610302

                     E (Thermal)             CV                S
                      KCal/Mol        Cal/Mol-Kelvin    Cal/Mol-Kelvin
 Total                    9.774             10.265             64.600
 Electronic               0.000              0.000              0.000
 Translational            0.889              2.981             38.569
 Rotational               0.889              2.981             23.958
 Vibrational              7.997              4.304              2.073
 Vibration     1          0.813              1.350              0.782
 Vibration     2          0.813              1.350              0.781

 Optimization completed.
    -- Stationary point found.
 Normal termination of Gaussian 09 at Fri Apr 21 10:47:02 2017.
