 Gaussian 09, Revision B.01,
 Gaussian 09:  EM64L-G09RevB.01 12-Aug-2010

 ----------------------------------------------------------------------
 #p Temperature=358.15 int=(grid=ultrafine) CPHF=(grid=fine) freq rb3ly
 p/aug-cc-pvdz
 ----------------------------------------------------------------------

 ---------------------------------
 m-NO2-Ph-OTf-RB3LYP-aug-cc-pVDZ--
 ---------------------------------
 Symbolic Z-matrix:
 Charge =  0 Multiplicity = 1

                         Standard orientation:
 ---------------------------------------------------------------------
 Center     Atomic      Atomic             Coordinates (Angstroms)
 Number     Number       Type             X           Y           Z
 ---------------------------------------------------------------------
      1          6           0        2.314530    2.306879   -0.203039
      2          6           0        0.972990    1.958690   -0.384689
      3          6           0        0.625350    0.606730   -0.423269
      4          6           0        1.570649   -0.405441   -0.286399
      5          6           0        2.899449   -0.019251   -0.112829
      6          6           0        3.291880    1.318779   -0.066009
      7          1           0        2.600040    3.357559   -0.172189
      8          1           0        0.200660    2.717180   -0.497509
      9          1           0        1.291049   -1.454571   -0.316899
     10         16           0       -1.735051    0.180200    0.651041
     11          6           0       -3.203851   -0.479140   -0.370169
     12          8           0       -0.708931    0.246130   -0.681729
     13          8           0       -1.290081   -0.870060    1.581161
     14          8           0       -2.053500    1.543340    1.108431
     15          9           0       -3.520091    0.394570   -1.323929
     16          9           0       -2.888691   -1.654600   -0.908849
     17          9           0       -4.228031   -0.623689    0.472911
     18          1           0        4.340950    1.566579    0.072371
     19          7           0        3.927649   -1.074871    0.023061
     20          8           0        5.088369   -0.716671    0.198801
     21          8           0        3.556629   -2.242221   -0.049989
 ---------------------------------------------------------------------

 SCF Done:  E(RB3LYP) =  -1397.70287881     A.U. after   16 cycles

 The electronic state is 1-A.
 Alpha  occ. eigenvalues --  -89.18314 -24.80384 -24.80370 -24.80346 -19.25216
 Alpha  occ. eigenvalues --  -19.20837 -19.20825 -19.20319 -19.20311 -14.59131
 Alpha  occ. eigenvalues --  -10.51222 -10.30428 -10.28178 -10.24816 -10.24643
 Alpha  occ. eigenvalues --  -10.24475 -10.24320  -8.21204  -6.17635  -6.17450
 Alpha  occ. eigenvalues --   -6.17382  -1.38363  -1.29751  -1.29690  -1.25378
 Alpha  occ. eigenvalues --   -1.18609  -1.09914  -1.08140  -1.06371  -0.92151
 Alpha  occ. eigenvalues --   -0.83961  -0.81759  -0.78813  -0.73601  -0.72482
 Alpha  occ. eigenvalues --   -0.66692  -0.65852  -0.65593  -0.64427  -0.61387
 Alpha  occ. eigenvalues --   -0.58932  -0.56015  -0.55778  -0.54668  -0.53942
 Alpha  occ. eigenvalues --   -0.53180  -0.52854  -0.52209  -0.51996  -0.50856
 Alpha  occ. eigenvalues --   -0.49615  -0.49309  -0.48564  -0.47522  -0.47147
 Alpha  occ. eigenvalues --   -0.43110  -0.42902  -0.41814  -0.40160  -0.39572
 Alpha  occ. eigenvalues --   -0.37554  -0.36744  -0.34855  -0.33813  -0.33450
 Alpha  occ. eigenvalues --   -0.31850  -0.31216  -0.30286
 Alpha virt. eigenvalues --   -0.11970  -0.07255  -0.04573  -0.03062  -0.02629
 Alpha virt. eigenvalues --   -0.01731  -0.00527   0.00261   0.01197   0.01769
 Alpha virt. eigenvalues --    0.01941   0.03131   0.03516   0.03852   0.04666

 Mulliken atomic charges:
              1
     1  C    0.812009
     2  C    0.843097
     3  C   -0.006510
     4  C    1.019642
     5  C    0.848004
     6  C    0.936935
     7  H   -0.736812
     8  H   -0.840434
     9  H   -0.848952
    10  S    2.215064
    11  C    1.125290
    12  O   -0.941397
    13  O   -0.854353
    14  O   -0.866384
    15  F   -0.418562
    16  F   -0.420685
    17  F   -0.387184
    18  H   -0.826856
    19  N    0.700203
    20  O   -0.686832
    21  O   -0.665285
 Sum of Mulliken atomic charges =   0.00000

 Dipole moment (field-independent basis, Debye):
    X=             -1.3173    Y=              3.2875    Z=             -1.9878  Tot=              4.0613
 Quadrupole moment (field-independent basis, Debye-Ang):
   XX=           -113.4314   YY=           -101.1000   ZZ=           -105.1670
   XY=             15.7107   XZ=              1.5779   YZ=             -0.3834

  Exact polarizability: 184.107  -1.859 144.745   3.708  -1.384  90.352
 Approx polarizability: 263.001   2.995 260.991  12.854  -1.148 149.558

                     1                      2                      3
                     A                      A                      A
 Frequencies --     9.6767                21.0742                43.9563
 Red. masses --    11.6104                12.4262                14.7877
 Frc consts  --     0.0006                 0.0033                 0.0168
 IR Inten    --     1.0498                 0.6306                 0.1288

                     4                      5                      6
                     A                      A                      A
 Frequencies --    47.6420                66.8175               126.4615
 Red. masses --    15.9362                 9.0650                10.1125
 Frc consts  --     0.0213                 0.0238                 0.0953
 IR Inten    --     0.3559                 0.7069                 1.5344

                     7                      8                      9
                     A                      A                      A
 Frequencies --   165.9333               170.1204               187.4783
 Red. masses --    12.0428                 7.0723                11.6524
 Frc consts  --     0.1954                 0.1206                 0.2413
 IR Inten    --     1.9560                 2.1163                 2.0982

                    10                     11                     12
                     A                      A                      A
 Frequencies --   235.4505               246.3460               285.5385
 Red. masses --     5.2227                16.3426                10.3010
 Frc consts  --     0.1706                 0.5843                 0.4948
 IR Inten    --     0.9556                 6.3357                 0.7554

                    13                     14                     15
                     A                      A                      A
 Frequencies --   291.0430               355.4769               394.4384
 Red. masses --    17.2690                11.2397                 9.7823
 Frc consts  --     0.8619                 0.8368                 0.8967
 IR Inten    --     1.0419                 1.9169                 0.6354

                    16                     17                     18
                     A                      A                      A
 Frequencies --   433.3717               445.6317               457.3497
 Red. masses --     4.7056                 6.5525                 8.5350
 Frc consts  --     0.5207                 0.7667                 1.0518
 IR Inten    --     0.7434                 7.0797                11.1858

                    19                     20                     21
                     A                      A                      A
 Frequencies --   494.8542               528.2432               537.0207
 Red. masses --    10.8916                 8.7746                11.2779
 Frc consts  --     1.5714                 1.4426                 1.9163
 IR Inten    --    44.5499                47.3611                 0.7134

                    22                     23                     24
                     A                      A                      A
 Frequencies --   539.8845               555.8462               629.4304
 Red. masses --    14.2312                 8.6218                 8.3589
 Frc consts  --     2.4439                 1.5695                 1.9512
 IR Inten    --     1.1007                19.8290                53.8887

                    25                     26                     27
                     A                      A                      A
 Frequencies --   664.8090               685.6294               695.3816
 Red. masses --     8.6692                 2.2137                10.2882
 Frc consts  --     2.2575                 0.6131                 2.9311
 IR Inten    --   111.6616                 9.9034               110.0620

                    28                     29                     30
                     A                      A                      A
 Frequencies --   753.7378               763.6347               815.2915
 Red. masses --    14.9813                 4.7747                 1.5987
 Frc consts  --     5.0147                 1.6405                 0.6261
 IR Inten    --    19.1833                32.6623                18.0606

                    31                     32                     33
                     A                      A                      A
 Frequencies --   824.5264               918.8707               931.9832
 Red. masses --    11.6521                 1.5864                 5.5593
 Frc consts  --     4.6673                 0.7892                 2.8450
 IR Inten    --   166.2702                13.4591                78.8267

                    34                     35                     36
                     A                      A                      A
 Frequencies --   943.4351              1001.1982              1015.2608
 Red. masses --     1.4340                 1.3499                 6.2400
 Frc consts  --     0.7520                 0.7972                 3.7896
 IR Inten    --     1.0797                 0.1190                 1.3063

                    37                     38                     39
                     A                      A                      A
 Frequencies --  1061.3133              1087.8722              1096.7454
 Red. masses --    15.1936                 1.6399                 1.4897
 Frc consts  --    10.0832                 1.1435                 1.0557
 IR Inten    --   227.7150                20.7115                15.5929

                    40                     41                     42
                     A                      A                      A
 Frequencies --  1152.9818              1174.2239              1201.9202
 Red. masses --    11.1797                 1.1360                 7.4922
 Frc consts  --     8.7564                 0.9228                 6.3769
 IR Inten    --   259.3945                 0.2130                61.6451

                    43                     44                     45
                     A                      A                      A
 Frequencies --  1209.8600              1214.7497              1281.8539
 Red. masses --     9.5628                13.1983                 1.4165
 Frc consts  --     8.2471                11.4747                 1.3714
 IR Inten    --   245.5836               161.1380                14.1877

                    46                     47                     48
                     A                      A                      A
 Frequencies --  1301.4252              1364.0328              1384.6170
 Red. masses --    15.5536                 8.0278                14.4630
 Frc consts  --    15.5209                 8.8003                16.3369
 IR Inten    --   192.0315                11.2140               269.6899

                    49                     50                     51
                     A                      A                      A
 Frequencies --  1460.8291              1490.6792              1600.1541
 Red. masses --     3.1540                 2.5583                10.9403
 Frc consts  --     3.9656                 3.3494                16.5045
 IR Inten    --     4.0911                43.3077               284.6096

                    52                     53                     54
                     A                      A                      A
 Frequencies --  1631.1566              1654.0878              3200.6413
 Red. masses --     6.7756                 8.4446                 1.0894
 Frc consts  --    10.6216                13.6127                 6.5752
 IR Inten    --     3.4480                16.6037                 3.5488

                    55                     56                     57
                     A                      A                      A
 Frequencies --  3219.8147              3236.9724              3244.2756
 Red. masses --     1.0952                 1.0940                 1.0933
 Frc consts  --     6.6895                 6.7538                 6.7797
 IR Inten    --     0.1349                 4.4657                11.6284

 - Thermochemistry -
 -------------------
 Temperature   358.150 Kelvin.  Pressure   1.00000 Atm.
 Atom     1 has atomic number  6 and mass  12.00000

 Molecular mass:   270.97623 amu.
 Principal axes and moments of inertia in atomic units:
                           1         2         3
     Eigenvalues --  1873.376528559.272069417.39335
           X            0.99999   0.00455  -0.00283
           Y           -0.00457   0.99995  -0.00842
           Z            0.00279   0.00844   0.99996
 This molecule is an asymmetric top.
 Rotational symmetry number  1.
 Warning -- assumption of classical behavior for rotation
           may cause significant error
 Rotational temperatures (Kelvin)      0.04623     0.01012     0.00920
 Rotational constants (GHZ):           0.96336     0.21085     0.19164
 Zero-point vibrational energy     314337.0 (Joules/Mol)
                                   75.12836 (Kcal/Mol)
 Warning -- explicit consideration of  27 degrees of freedom as
           vibrations may cause significant error
 Vibrational temperatures:     13.92    30.32    63.24    68.55    96.14
          (Kelvin)            181.95   238.74   244.76   269.74   338.76
                              354.44   410.83   418.75   511.45   567.51
                              623.52   641.16   658.02   711.98   760.02
                              772.65   776.77   799.74   905.61   956.51
                              986.47  1000.50  1084.46  1098.70  1173.02
                             1186.31  1322.05  1340.91  1357.39  1440.50
                             1460.73  1526.99  1565.20  1577.97  1658.88
                             1689.44  1729.29  1740.72  1747.75  1844.30
                             1872.46  1962.54  1992.15  2101.80  2144.75
                             2302.26  2346.87  2379.86  4605.00  4632.59
                             4657.28  4667.78

 Zero-point correction=                           0.119725 (Hartree/Particle)
 Thermal correction to Energy=                    0.140577
 Thermal correction to Enthalpy=                  0.141711
 Thermal correction to Gibbs Free Energy=         0.059776
 Sum of electronic and zero-point Energies=          -1397.583154
 Sum of electronic and thermal Energies=             -1397.562302
 Sum of electronic and thermal Enthalpies=           -1397.561168
 Sum of electronic and thermal Free Energies=        -1397.643103

                     E (Thermal)             CV                S
                      KCal/Mol        Cal/Mol-Kelvin    Cal/Mol-Kelvin
 Total                   88.213             62.249            143.557
 Electronic               0.000              0.000              0.000
 Translational            1.068              2.981             43.600
 Rotational               1.068              2.981             33.925
 Vibrational             86.078             56.287             66.031
 Vibration     1          0.712              1.987              8.441
 Vibration     2          0.712              1.986              6.894
 Vibration     3          0.714              1.982              5.436
 Vibration     4          0.714              1.981              5.276
 Vibration     5          0.716              1.975              4.607
 Vibration     6          0.727              1.945              3.354
 Vibration     7          0.738              1.915              2.830
 Vibration     8          0.739              1.912              2.782
 Vibration     9          0.745              1.896              2.597
 Vibration    10          0.764              1.845              2.170
 Vibration    11          0.769              1.833              2.087
 Vibration    12          0.788              1.783              1.820
 Vibration    13          0.791              1.776              1.786
 Vibration    14          0.829              1.681              1.440
 Vibration    15          0.855              1.619              1.268
 Vibration    16          0.883              1.553              1.119
 Vibration    17          0.892              1.532              1.076
 Vibration    18          0.901              1.511              1.036
 Vibration    19          0.932              1.444              0.920
 Vibration    20          0.961              1.383              0.827
 Vibration    21          0.968              1.367              0.805
 Vibration    22          0.971              1.362              0.797
 Vibration    23          0.985              1.333              0.758
 Vibration    24          1.056              1.197              0.601
 Vibration    25          1.092              1.132              0.537
 Vibration    26          1.113              1.094              0.503
 Vibration    27          1.124              1.077              0.487

 Normal termination of Gaussian 09 at Tue May  9 09:26:00 2017.
