 Gaussian 09, Revision B.01,
 Gaussian 09:  EM64L-G09RevB.01 12-Aug-2010

 ----------------------------------------------------------------------
 #p opt=(verytight,maxcycles=1000) int=(grid=ultrafine) CPHF=(grid=fine
 ) freq rb3lyp/aug-cc-pvdz
 ----------------------------------------------------------------------

 ----------------------------------
 m-NO2-Ph-N2-OTf-RB3LYP-aug-cc-pVDZ
 ----------------------------------
 Symbolic Z-matrix:
 Charge =  0 Multiplicity = 1

 SCF Done:  E(RB3LYP) =  -1507.15485592     A.U. after   18 cycles
 SCF Done:  E(RB3LYP) =  -1507.15485589     A.U. after    9 cycles
 SCF Done:  E(RB3LYP) =  -1507.15485372     A.U. after   11 cycles
 SCF Done:  E(RB3LYP) =  -1507.15485602     A.U. after   11 cycles
 SCF Done:  E(RB3LYP) =  -1507.15485603     A.U. after    7 cycles
 SCF Done:  E(RB3LYP) =  -1507.15485605     A.U. after    8 cycles
 SCF Done:  E(RB3LYP) =  -1507.15485607     A.U. after    8 cycles
 SCF Done:  E(RB3LYP) =  -1507.15485610     A.U. after    9 cycles
 SCF Done:  E(RB3LYP) =  -1507.15485611     A.U. after    9 cycles
 SCF Done:  E(RB3LYP) =  -1507.15485612     A.U. after    8 cycles
 SCF Done:  E(RB3LYP) =  -1507.15485615     A.U. after    4 cycles
 SCF Done:  E(RB3LYP) =  -1507.15485615     A.U. after    4 cycles
 SCF Done:  E(RB3LYP) =  -1507.15485615     A.U. after    4 cycles
 SCF Done:  E(RB3LYP) =  -1507.15485615     A.U. after    4 cycles
 SCF Done:  E(RB3LYP) =  -1507.15485615     A.U. after    5 cycles
 SCF Done:  E(RB3LYP) =  -1507.15485615     A.U. after    4 cycles
 SCF Done:  E(RB3LYP) =  -1507.15485615     A.U. after    4 cycles
 SCF Done:  E(RB3LYP) =  -1507.15485615     A.U. after    4 cycles
 SCF Done:  E(RB3LYP) =  -1507.15485615     A.U. after    4 cycles
 Optimization completed.
    -- Stationary point found.
 Normal termination of Gaussian 09 at Tue Apr 18 20:38:42 2017.

 ----------------------------------------------------------------------
 #P Geom=AllCheck Guess=TCheck SCRF=Check GenChk RB3LYP/Aug-CC-pVDZ Fre
 q
 ----------------------------------------------------------------------

 m-NO2-Ph-N2-OTf-RB3LYP-aug-cc-pVDZ
 ----------------------------------
 Redundant internal coordinates taken from checkpoint file:
 /home/ubuntu/g09/Gau-19306.chk
 Charge =  0 Multiplicity = 1

                         Standard orientation:
 ---------------------------------------------------------------------
 Center     Atomic      Atomic             Coordinates (Angstroms)
 Number     Number       Type             X           Y           Z
 ---------------------------------------------------------------------
      1          6           0       -1.731729   -1.607738   -0.707433
      2          6           0       -0.881836   -0.507886   -0.587151
      3          6           0       -1.464124    0.703694   -0.177880
      4          6           0       -2.826194    0.873931    0.098976
      5          6           0       -3.618333   -0.257809   -0.030791
      6          6           0       -3.096757   -1.493730   -0.427608
      7          1           0       -1.319051   -2.564804   -1.021952
      8          1           0        0.188799   -0.533904   -0.819815
      9          1           0       -3.251638    1.825510    0.407050
     10          7           0       -0.628593    1.814040   -0.040421
     11          7           0        0.206527    2.540828    0.112909
     12         16           0        2.754511    0.679608   -0.261661
     13          6           0        3.280334   -1.019920    0.402388
     14          8           0        1.860747    0.333960   -1.430788
     15          8           0        4.019343    1.384708   -0.571312
     16          8           0        1.947751    1.232405    0.909502
     17          9           0        2.182698   -1.766738    0.684047
     18          9           0        4.006669   -1.677389   -0.514109
     19          9           0        4.003412   -0.897122    1.523261
     20          1           0       -3.767445   -2.345938   -0.514257
     21          7           0       -5.067459   -0.137404    0.259164
     22          8           0       -5.747933   -1.147319    0.135878
     23          8           0       -5.479825    0.965139    0.600741
 ---------------------------------------------------------------------

 SCF Done:  E(RB3LYP) =  -1507.15485615     A.U. after    1 cycles

 The electronic state is 1-A.
 Alpha  occ. eigenvalues --  -89.11621 -24.75277 -24.74931 -24.74926 -19.24168
 Alpha  occ. eigenvalues --  -19.24105 -19.14061 -19.13404 -19.12847 -14.63042
 Alpha  occ. eigenvalues --  -14.57782 -14.56476 -10.44556 -10.36215 -10.32875
 Alpha  occ. eigenvalues --  -10.31186 -10.29690 -10.29300 -10.28459  -8.14240
 Alpha  occ. eigenvalues --   -6.10588  -6.10556  -6.10530  -1.32516  -1.29312
 Alpha  occ. eigenvalues --   -1.24133  -1.24028  -1.23981  -1.12171  -1.11025
 Alpha  occ. eigenvalues --   -0.99580  -0.98354  -0.97736  -0.92784  -0.87332
 Alpha  occ. eigenvalues --   -0.80236  -0.77681  -0.73400  -0.69848  -0.64824
 Alpha  occ. eigenvalues --   -0.64478  -0.61366  -0.60325  -0.60219  -0.60072
 Alpha  occ. eigenvalues --   -0.59832  -0.59376  -0.58059  -0.57012  -0.56277
 Alpha  occ. eigenvalues --   -0.54788  -0.53750  -0.52870  -0.48301  -0.47939
 Alpha  occ. eigenvalues --   -0.47399  -0.47025  -0.45914  -0.45743  -0.45464
 Alpha  occ. eigenvalues --   -0.44857  -0.43971  -0.43823  -0.42042  -0.37637
 Alpha  occ. eigenvalues --   -0.37268  -0.36730  -0.35783  -0.35721  -0.33958
 Alpha  occ. eigenvalues --   -0.33229  -0.30745  -0.30587  -0.29489  -0.26796
 Alpha virt. eigenvalues --   -0.17354  -0.15710  -0.14566  -0.08882  -0.05851
 Alpha virt. eigenvalues --   -0.04161  -0.02271  -0.01150  -0.00204   0.00728
 Alpha virt. eigenvalues --    0.01582   0.02694   0.03375   0.03911   0.04560

 Mulliken atomic charges:
              1
     1  C    0.788848
     2  C    1.101185
     3  C    0.480260
     4  C    0.908291
     5  C    0.520862
     6  C    1.030844
     7  H   -0.841367
     8  H   -0.823802
     9  H   -0.827439
    10  N    0.363400
    11  N   -0.534854
    12  S    2.333611
    13  C    1.077203
    14  O   -0.957899
    15  O   -0.891331
    16  O   -0.932228
    17  F   -0.502964
    18  F   -0.422326
    19  F   -0.420702
    20  H   -0.830878
    21  N    0.684229
    22  O   -0.660071
    23  O   -0.642872
 Sum of Mulliken atomic charges =   0.00000

 Dipole moment (field-independent basis, Debye):
    X=             -9.3244    Y=             -1.2766    Z=             -0.3566  Tot=              9.4181
 Quadrupole moment (field-independent basis, Debye-Ang):
   XX=           -154.4931   YY=           -104.4269   ZZ=           -117.2876
   XY=             -7.3267   XZ=              6.9440   YZ=              2.3311

  Exact polarizability: 245.195  14.651 160.167  -4.358  10.218 100.716
 Approx polarizability: 336.940  36.209 305.755  -3.203  29.659 170.056

                     1                      2                      3
                     A                      A                      A
 Frequencies --    14.8481                22.5006                29.0975
 Red. masses --    12.8613                15.3950                 8.5103
 Frc consts  --     0.0017                 0.0046                 0.0042
 IR Inten    --     1.5161                 2.5374                 1.0081

                     4                      5                      6
                     A                      A                      A
 Frequencies --    44.5922                51.3401                57.1291
 Red. masses --    13.7068                11.6233                11.6645
 Frc consts  --     0.0161                 0.0181                 0.0224
 IR Inten    --     6.3983                 5.0667                 1.2055

                     7                      8                      9
                     A                      A                      A
 Frequencies --   109.3000               111.4781               143.6213
 Red. masses --    13.3107                14.3767                 6.8420
 Frc consts  --     0.0937                 0.1053                 0.0832
 IR Inten    --    24.9413                 3.0684                 0.7944

                    10                     11                     12
                     A                      A                      A
 Frequencies --   162.6181               182.9358               191.6221
 Red. masses --    12.3263                12.8687                 6.3468
 Frc consts  --     0.1921                 0.2537                 0.1373
 IR Inten    --    46.5076                 0.2642                 1.7522

                    13                     14                     15
                     A                      A                      A
 Frequencies --   209.6296               258.1641               279.7584
 Red. masses --    14.9684                 7.7469                17.4409
 Frc consts  --     0.3876                 0.3042                 0.8042
 IR Inten    --    53.0578                20.8253                 6.7034

                    16                     17                     18
                     A                      A                      A
 Frequencies --   314.3304               329.2345               382.2448
 Red. masses --    17.2831                17.0000                11.0446
 Frc consts  --     1.0061                 1.0857                 0.9508
 IR Inten    --     0.7012                23.5997                 7.1217

                    19                     20                     21
                     A                      A                      A
 Frequencies --   397.8160               430.5232               444.4033
 Red. masses --     5.0728                 3.6731                 9.5416
 Frc consts  --     0.4730                 0.4011                 1.1103
 IR Inten    --     9.5924                 4.3693                 1.9912

                    22                     23                     24
                     A                      A                      A
 Frequencies --   469.2086               480.0553               499.2773
 Red. masses --    16.3968                16.5763                 9.8207
 Frc consts  --     2.1269                 2.2507                 1.4424
 IR Inten    --    22.0327                57.1401                21.2834

                    25                     26                     27
                     A                      A                      A
 Frequencies --   538.3191               540.6646               552.5094
 Red. masses --    17.7900                17.8725                 6.7514
 Frc consts  --     3.0374                 3.0782                 1.2143
 IR Inten    --     1.5575                 8.6472                 9.8751

                    28                     29                     30
                     A                      A                      A
 Frequencies --   567.0849               587.2126               667.9750
 Red. masses --     7.0026                20.7173                 2.7622
 Frc consts  --     1.3268                 4.2090                 0.7261
 IR Inten    --     3.2723               134.2560                11.9740

                    31                     32                     33
                     A                      A                      A
 Frequencies --   675.1522               729.8791               753.8935
 Red. masses --     7.4295                17.9989                 4.3881
 Frc consts  --     1.9953                 5.6493                 1.4694
 IR Inten    --     7.8882                 1.6591                28.1534

                    34                     35                     36
                     A                      A                      A
 Frequencies --   797.0180               841.9792               906.6258
 Red. masses --    10.5357                 1.4027                 6.8084
 Frc consts  --     3.9432                 0.5859                 3.2972
 IR Inten    --    24.7319                11.1721                24.9835

                    37                     38                     39
                     A                      A                      A
 Frequencies --   921.1845               928.5400              1000.6730
 Red. masses --    15.0029                 1.5557                 2.4784
 Frc consts  --     7.5010                 0.7903                 1.4622
 IR Inten    --   274.1762                 9.3851                 5.3127

                    40                     41                     42
                     A                      A                      A
 Frequencies --  1012.5396              1042.3029              1075.3222
 Red. masses --     1.9656                 1.5684                 5.3239
 Frc consts  --     1.1873                 1.0039                 3.6270
 IR Inten    --     2.3314                18.4511               144.0951

                    43                     44                     45
                     A                      A                      A
 Frequencies --  1084.4234              1112.7277              1121.0214
 Red. masses --     1.6968                 1.7569                 7.3640
 Frc consts  --     1.1756                 1.2817                 5.4524
 IR Inten    --    47.6685                 1.3968               138.8236

                    46                     47                     48
                     A                      A                      A
 Frequencies --  1160.1553              1161.8313              1177.3296
 Red. masses --    13.5142                 6.4545                12.9437
 Frc consts  --    10.7170                 5.1333                10.5707
 IR Inten    --   143.1916                11.2172               277.4677

                    49                     50                     51
                     A                      A                      A
 Frequencies --  1192.8117              1223.9630              1297.7814
 Red. masses --     1.2068                12.5806                 1.4094
 Frc consts  --     1.0116                11.1042                 1.3986
 IR Inten    --   107.6363               507.5766                 2.1767

                    52                     53                     54
                     A                      A                      A
 Frequencies --  1374.7541              1385.8194              1471.5206
 Red. masses --     8.1979                13.7512                 2.4875
 Frc consts  --     9.1286                15.5598                 3.1735
 IR Inten    --     1.5816               270.3151                 2.8561

                    55                     56                     57
                     A                      A                      A
 Frequencies --  1473.3027              1596.4779              1618.8505
 Red. masses --     2.3973                 7.9683                 6.6437
 Frc consts  --     3.0659                11.9658                10.2583
 IR Inten    --    13.5967                71.3100                 7.6361

                    58                     59                     60
                     A                      A                      A
 Frequencies --  1649.7844              2300.1466              3100.3335
 Red. masses --     9.7114                13.9623                 1.1012
 Frc consts  --    15.5735                43.5229                 6.2365
 IR Inten    --   190.8599               183.0270               316.5701

                    61                     62                     63
                     A                      A                      A
 Frequencies --  3213.1834              3231.0671              3236.9174
 Red. masses --     1.0917                 1.0945                 1.0944
 Frc consts  --     6.6408                 6.7323                 6.7560
 IR Inten    --     2.5026                 9.3283                19.3719

 - Thermochemistry -
 -------------------
 Temperature   298.150 Kelvin.  Pressure   1.00000 Atm.
 Atom     1 has atomic number  6 and mass  12.00000

 Molecular mass:   298.98238 amu.
 Principal axes and moments of inertia in atomic units:
                           1         2         3
     Eigenvalues --  2187.98675********************
           X            0.99997   0.00727  -0.00101
           Y           -0.00725   0.99979   0.01943
           Z            0.00115  -0.01942   0.99981
 This molecule is an asymmetric top.
 Rotational symmetry number  1.
 Warning -- assumption of classical behavior for rotation
           may cause significant error
 Rotational temperatures (Kelvin)      0.03959     0.00709     0.00645
 Rotational constants (GHZ):           0.82484     0.14773     0.13431
 Zero-point vibrational energy     334588.4 (Joules/Mol)
                                   79.96854 (Kcal/Mol)
 Warning -- explicit consideration of  29 degrees of freedom as
           vibrations may cause significant error
 Vibrational temperatures:     21.36    32.37    41.86    64.16    73.87
          (Kelvin)             82.20   157.26   160.39   206.64   233.97
                              263.20   275.70   301.61   371.44   402.51
                              452.25   473.69   549.96   572.37   619.43
                              639.40   675.09   690.69   718.35   774.52
                              777.89   794.94   815.91   844.87   961.07
                              971.39  1050.13  1084.68  1146.73  1211.42
                             1304.43  1325.38  1335.96  1439.74  1456.82
                             1499.64  1547.15  1560.24  1600.97  1612.90
                             1669.20  1671.61  1693.91  1716.19  1761.01
                             1867.22  1977.96  1993.88  2117.19  2119.75
                             2296.97  2329.16  2373.67  3309.39  4460.68
                             4623.05  4648.78  4657.20

 Zero-point correction=                           0.127438 (Hartree/Particle)
 Thermal correction to Energy=                    0.145484
 Thermal correction to Enthalpy=                  0.146428
 Thermal correction to Gibbs Free Energy=         0.076806
 Sum of electronic and zero-point Energies=          -1507.027418
 Sum of electronic and thermal Energies=             -1507.009372
 Sum of electronic and thermal Enthalpies=           -1507.008428
 Sum of electronic and thermal Free Energies=        -1507.078050

                     E (Thermal)             CV                S
                      KCal/Mol        Cal/Mol-Kelvin    Cal/Mol-Kelvin
 Total                   91.293             62.948            146.533
 Electronic               0.000              0.000              0.000
 Translational            0.889              2.981             42.983
 Rotational               0.889              2.981             34.240
 Vibrational             89.515             56.987             69.310
 Vibration     1          0.593              1.986              7.226
 Vibration     2          0.593              1.985              6.400
 Vibration     3          0.593              1.984              5.890
 Vibration     4          0.595              1.980              5.044
 Vibration     5          0.596              1.977              4.765
 Vibration     6          0.596              1.975              4.554
 Vibration     7          0.606              1.942              3.281
 Vibration     8          0.607              1.940              3.243
 Vibration     9          0.616              1.910              2.755
 Vibration    10          0.623              1.888              2.519
 Vibration    11          0.630              1.863              2.298
 Vibration    12          0.634              1.851              2.212
 Vibration    13          0.642              1.826              2.047
 Vibration    14          0.667              1.749              1.674
 Vibration    15          0.680              1.711              1.535
 Vibration    16          0.702              1.646              1.339
 Vibration    17          0.712              1.617              1.264
 Vibration    18          0.752              1.508              1.030
 Vibration    19          0.764              1.475              0.971
 Vibration    20          0.792              1.404              0.857
 Vibration    21          0.804              1.373              0.813
 Vibration    22          0.826              1.318              0.740
 Vibration    23          0.836              1.294              0.710
 Vibration    24          0.855              1.252              0.660
 Vibration    25          0.893              1.165              0.569
 Vibration    26          0.896              1.160              0.564
 Vibration    27          0.908              1.134              0.539
 Vibration    28          0.923              1.102              0.510
 Vibration    29          0.944              1.059              0.472

 Normal termination of Gaussian 09 at Tue Apr 18 22:11:44 2017.
