 Gaussian 09, Revision B.01,
 Gaussian 09:  EM64L-G09RevB.01 12-Aug-2010

 ----------------------------------------------------------------------
 #p opt=(verytight,maxcycles=1000) int=(grid=ultrafine) CPHF=(grid=fine
 ) freq rb3lyp/aug-cc-pvdz
 ----------------------------------------------------------------------

 -------------------------------
 m-NO2-Ph-OTf-RB3LYP-aug-cc-pVDZ
 -------------------------------
 Symbolic Z-matrix:
 Charge =  0 Multiplicity = 1

 SCF Done:  E(RB3LYP) =  -1397.64252461     A.U. after   15 cycles
 SCF Done:  E(RB3LYP) =  -1397.68242736     A.U. after   16 cycles
 SCF Done:  E(RB3LYP) =  -1397.69719741     A.U. after   15 cycles
 SCF Done:  E(RB3LYP) =  -1397.70070943     A.U. after   13 cycles
 SCF Done:  E(RB3LYP) =  -1397.69180991     A.U. after   16 cycles
 SCF Done:  E(RB3LYP) =  -1397.70115811     A.U. after   16 cycles
 SCF Done:  E(RB3LYP) =  -1397.70256070     A.U. after   16 cycles
 SCF Done:  E(RB3LYP) =  -1397.70282820     A.U. after   15 cycles
 SCF Done:  E(RB3LYP) =  -1397.70286135     A.U. after   12 cycles
 SCF Done:  E(RB3LYP) =  -1397.70286748     A.U. after   11 cycles
 SCF Done:  E(RB3LYP) =  -1397.70287880     A.U. after   10 cycles
 SCF Done:  E(RB3LYP) =  -1397.70287881     A.U. after   10 cycles
 SCF Done:  E(RB3LYP) =  -1397.70287881     A.U. after    7 cycles
 SCF Done:  E(RB3LYP) =  -1397.70287881     A.U. after    6 cycles
 SCF Done:  E(RB3LYP) =  -1397.70287881     A.U. after    4 cycles
 SCF Done:  E(RB3LYP) =  -1397.70287881     A.U. after    4 cycles
 SCF Done:  E(RB3LYP) =  -1397.70287881     A.U. after    4 cycles
 SCF Done:  E(RB3LYP) =  -1397.70287881     A.U. after    4 cycles
 SCF Done:  E(RB3LYP) =  -1397.70287881     A.U. after    4 cycles
 Optimization completed.
    -- Stationary point found.
 Normal termination of Gaussian 09 at Fri Apr 21 14:29:23 2017.

 ----------------------------------------------------------------------
 #P Geom=AllCheck Guess=TCheck SCRF=Check GenChk RB3LYP/Aug-CC-pVDZ Fre
 q
 ----------------------------------------------------------------------

 m-NO2-Ph-OTf-RB3LYP-aug-cc-pVDZ
 -------------------------------
 Redundant internal coordinates taken from checkpoint file:
 /home/ubuntu/g09/Gau-2943.chk
 Charge =  0 Multiplicity = 1

                         Standard orientation:
 ---------------------------------------------------------------------
 Center     Atomic      Atomic             Coordinates (Angstroms)
 Number     Number       Type             X           Y           Z
 ---------------------------------------------------------------------
      1          6           0        2.314526    2.306877   -0.203044
      2          6           0        0.972994    1.958686   -0.384687
      3          6           0        0.625350    0.606733   -0.423265
      4          6           0        1.570650   -0.405438   -0.286397
      5          6           0        2.899447   -0.019249   -0.112832
      6          6           0        3.291879    1.318783   -0.066006
      7          1           0        2.600038    3.357558   -0.172185
      8          1           0        0.200657    2.717181   -0.497508
      9          1           0        1.291051   -1.454572   -0.316898
     10         16           0       -1.735052    0.180203    0.651039
     11          6           0       -3.203854   -0.479139   -0.370172
     12          8           0       -0.708931    0.246126   -0.681729
     13          8           0       -1.290080   -0.870063    1.581162
     14          8           0       -2.053496    1.543337    1.108434
     15          9           0       -3.520093    0.394573   -1.323930
     16          9           0       -2.888690   -1.654601   -0.908855
     17          9           0       -4.228028   -0.623689    0.472912
     18          1           0        4.340949    1.566580    0.072367
     19          7           0        3.927649   -1.074870    0.023062
     20          8           0        5.088372   -0.716674    0.198804
     21          8           0        3.556627   -2.242221   -0.049993
 ---------------------------------------------------------------------

 SCF Done:  E(RB3LYP) =  -1397.70287881     A.U. after    1 cycles

 The electronic state is 1-A.
 Alpha  occ. eigenvalues --  -89.18314 -24.80384 -24.80370 -24.80346 -19.25216
 Alpha  occ. eigenvalues --  -19.20837 -19.20825 -19.20319 -19.20311 -14.59131
 Alpha  occ. eigenvalues --  -10.51222 -10.30428 -10.28178 -10.24816 -10.24643
 Alpha  occ. eigenvalues --  -10.24475 -10.24320  -8.21204  -6.17635  -6.17450
 Alpha  occ. eigenvalues --   -6.17382  -1.38363  -1.29751  -1.29690  -1.25377
 Alpha  occ. eigenvalues --   -1.18609  -1.09914  -1.08140  -1.06371  -0.92151
 Alpha  occ. eigenvalues --   -0.83961  -0.81759  -0.78813  -0.73601  -0.72482
 Alpha  occ. eigenvalues --   -0.66692  -0.65852  -0.65593  -0.64427  -0.61387
 Alpha  occ. eigenvalues --   -0.58932  -0.56015  -0.55778  -0.54668  -0.53941
 Alpha  occ. eigenvalues --   -0.53180  -0.52854  -0.52209  -0.51996  -0.50856
 Alpha  occ. eigenvalues --   -0.49616  -0.49309  -0.48563  -0.47522  -0.47147
 Alpha  occ. eigenvalues --   -0.43110  -0.42902  -0.41814  -0.40160  -0.39572
 Alpha  occ. eigenvalues --   -0.37554  -0.36744  -0.34855  -0.33813  -0.33450
 Alpha  occ. eigenvalues --   -0.31850  -0.31217  -0.30286
 Alpha virt. eigenvalues --   -0.11970  -0.07255  -0.04573  -0.03062  -0.02629
 Alpha virt. eigenvalues --   -0.01731  -0.00527   0.00261   0.01197   0.01769
 Alpha virt. eigenvalues --    0.01941   0.03131   0.03516   0.03852   0.04666

 Mulliken atomic charges:
              1
     1  C    0.812016
     2  C    0.843044
     3  C   -0.006467
     4  C    1.019598
     5  C    0.848033
     6  C    0.936927
     7  H   -0.736806
     8  H   -0.840419
     9  H   -0.848943
    10  S    2.215066
    11  C    1.125291
    12  O   -0.941397
    13  O   -0.854358
    14  O   -0.866382
    15  F   -0.418560
    16  F   -0.420688
    17  F   -0.387181
    18  H   -0.826855
    19  N    0.700197
    20  O   -0.686833
    21  O   -0.665284
 Sum of Mulliken atomic charges =   0.00000

 Dipole moment (field-independent basis, Debye):
    X=             -1.3174    Y=              3.2875    Z=             -1.9878  Tot=              4.0614
 Quadrupole moment (field-independent basis, Debye-Ang):
   XX=           -113.4312   YY=           -101.1001   ZZ=           -105.1670
   XY=             15.7106   XZ=              1.5779   YZ=             -0.3834

  Exact polarizability: 184.107  -1.859 144.745   3.708  -1.384  90.352
 Approx polarizability: 263.001   2.995 260.990  12.854  -1.148 149.558

                     1                      2                      3
                     A                      A                      A
 Frequencies --     9.6877                21.0796                43.9746
 Red. masses --    11.6109                12.4251                14.7861
 Frc consts  --     0.0006                 0.0033                 0.0168
 IR Inten    --     1.0497                 0.6310                 0.1288

                     4                      5                      6
                     A                      A                      A
 Frequencies --    47.6450                66.8178               126.4606
 Red. masses --    15.9365                 9.0657                10.1128
 Frc consts  --     0.0213                 0.0238                 0.0953
 IR Inten    --     0.3560                 0.7068                 1.5344

                     7                      8                      9
                     A                      A                      A
 Frequencies --   165.9340               170.1225               187.4801
 Red. masses --    12.0433                 7.0723                11.6522
 Frc consts  --     0.1954                 0.1206                 0.2413
 IR Inten    --     1.9560                 2.1163                 2.0980

                    10                     11                     12
                     A                      A                      A
 Frequencies --   235.4488               246.3458               285.5385
 Red. masses --     5.2229                16.3426                10.3010
 Frc consts  --     0.1706                 0.5843                 0.4948
 IR Inten    --     0.9556                 6.3359                 0.7554

                    13                     14                     15
                     A                      A                      A
 Frequencies --   291.0423               355.4761               394.4376
 Red. masses --    17.2691                11.2397                 9.7823
 Frc consts  --     0.8619                 0.8368                 0.8967
 IR Inten    --     1.0419                 1.9169                 0.6355

                    16                     17                     18
                     A                      A                      A
 Frequencies --   433.3716               445.6316               457.3497
 Red. masses --     4.7052                 6.5534                 8.5358
 Frc consts  --     0.5207                 0.7668                 1.0519
 IR Inten    --     0.7431                 7.0796                11.1864

                    19                     20                     21
                     A                      A                      A
 Frequencies --   494.8545               528.2440               537.0198
 Red. masses --    10.8918                 8.7749                11.2788
 Frc consts  --     1.5715                 1.4427                 1.9164
 IR Inten    --    44.5482                47.3595                 0.7133

                    22                     23                     24
                     A                      A                      A
 Frequencies --   539.8838               555.8460               629.4310
 Red. masses --    14.2298                 8.6219                 8.3587
 Frc consts  --     2.4437                 1.5695                 1.9511
 IR Inten    --     1.1012                19.8299                53.8884

                    25                     26                     27
                     A                      A                      A
 Frequencies --   664.8101               685.6375               695.3813
 Red. masses --     8.6684                 2.2140                10.2886
 Frc consts  --     2.2573                 0.6132                 2.9312
 IR Inten    --   111.6514                 9.9019               110.0718

                    28                     29                     30
                     A                      A                      A
 Frequencies --   753.7363               763.6355               815.3046
 Red. masses --    14.9826                 4.7745                 1.5987
 Frc consts  --     5.0150                 1.6404                 0.6261
 IR Inten    --    19.1808                32.6644                18.0652

                    31                     32                     33
                     A                      A                      A
 Frequencies --   824.5257               918.8858               931.9813
 Red. masses --    11.6517                 1.5863                 5.5596
 Frc consts  --     4.6671                 0.7891                 2.8452
 IR Inten    --   166.2697                13.4595                78.8347

                    34                     35                     36
                     A                      A                      A
 Frequencies --   943.4489              1001.2037              1015.2622
 Red. masses --     1.4340                 1.3498                 6.2399
 Frc consts  --     0.7520                 0.7972                 3.7895
 IR Inten    --     1.0779                 0.1189                 1.3066

                    37                     38                     39
                     A                      A                      A
 Frequencies --  1061.3113              1087.8760              1096.7540
 Red. masses --    15.1936                 1.6399                 1.4897
 Frc consts  --    10.0831                 1.1435                 1.0558
 IR Inten    --   227.7252                20.7199                15.5842

                    40                     41                     42
                     A                      A                      A
 Frequencies --  1152.9793              1174.2340              1201.9222
 Red. masses --    11.1804                 1.1360                 7.4902
 Frc consts  --     8.7569                 0.9228                 6.3752
 IR Inten    --   259.3591                 0.2132                61.5647

                    43                     44                     45
                     A                      A                      A
 Frequencies --  1209.8635              1214.7411              1281.8613
 Red. masses --     9.5653                13.1991                 1.4166
 Frc consts  --     8.2494                11.4752                 1.3714
 IR Inten    --   245.7355               161.0874                14.2017

                    46                     47                     48
                     A                      A                      A
 Frequencies --  1301.4217              1364.0468              1384.6080
 Red. masses --    15.5477                 8.0275                14.4630
 Frc consts  --    15.5150                 8.8001                16.3367
 IR Inten    --   192.0199                11.2173               269.6855

                    49                     50                     51
                     A                      A                      A
 Frequencies --  1460.8381              1490.6863              1600.1479
 Red. masses --     3.1541                 2.5582                10.9412
 Frc consts  --     3.9658                 3.3493                16.5058
 IR Inten    --     4.0877                43.3030               284.6374

                    52                     53                     54
                     A                      A                      A
 Frequencies --  1631.1623              1654.0948              3200.6116
 Red. masses --     6.7757                 8.4433                 1.0894
 Frc consts  --    10.6219                13.6107                 6.5750
 IR Inten    --     3.4513                16.5724                 3.5486

                    55                     56                     57
                     A                      A                      A
 Frequencies --  3219.7486              3236.9861              3244.2412
 Red. masses --     1.0952                 1.0940                 1.0933
 Frc consts  --     6.6892                 6.7539                 6.7796
 IR Inten    --     0.1344                 4.4664                11.6291

 - Thermochemistry -
 -------------------
 Temperature   298.150 Kelvin.  Pressure   1.00000 Atm.
 Atom     1 has atomic number  6 and mass  12.00000

 Molecular mass:   270.97623 amu.
 Principal axes and moments of inertia in atomic units:
                           1         2         3
     Eigenvalues --  1873.377668559.273309417.39302
           X            0.99999   0.00455  -0.00283
           Y           -0.00457   0.99995  -0.00842
           Z            0.00279   0.00844   0.99996
 This molecule is an asymmetric top.
 Rotational symmetry number  1.
 Warning -- assumption of classical behavior for rotation
           may cause significant error
 Rotational temperatures (Kelvin)      0.04623     0.01012     0.00920
 Rotational constants (GHZ):           0.96336     0.21085     0.19164
 Zero-point vibrational energy     314337.2 (Joules/Mol)
                                   75.12839 (Kcal/Mol)
 Warning -- explicit consideration of  23 degrees of freedom as
           vibrations may cause significant error
 Vibrational temperatures:     13.94    30.33    63.27    68.55    96.14
          (Kelvin)            181.95   238.74   244.77   269.74   338.76
                              354.44   410.83   418.74   511.45   567.51
                              623.52   641.16   658.02   711.98   760.02
                              772.65   776.77   799.74   905.61   956.51
                              986.48  1000.50  1084.46  1098.70  1173.04
                             1186.31  1322.07  1340.91  1357.41  1440.51
                             1460.73  1526.99  1565.21  1577.98  1658.88
                             1689.46  1729.30  1740.72  1747.74  1844.31
                             1872.45  1962.56  1992.14  2101.82  2144.76
                             2302.25  2346.88  2379.87  4604.96  4632.49
                             4657.30  4667.73

 Zero-point correction=                           0.119725 (Hartree/Particle)
 Thermal correction to Energy=                    0.134985
 Thermal correction to Enthalpy=                  0.135930
 Thermal correction to Gibbs Free Energy=         0.072980
 Sum of electronic and zero-point Energies=          -1397.583154
 Sum of electronic and thermal Energies=             -1397.567893
 Sum of electronic and thermal Enthalpies=           -1397.566949
 Sum of electronic and thermal Free Energies=        -1397.629899

                     E (Thermal)             CV                S
                      KCal/Mol        Cal/Mol-Kelvin    Cal/Mol-Kelvin
 Total                   84.705             54.563            132.488
 Electronic               0.000              0.000              0.000
 Translational            0.889              2.981             42.690
 Rotational               0.889              2.981             33.379
 Vibrational             82.927             48.602             56.420
 Vibration     1          0.593              1.987              8.074
 Vibration     2          0.593              1.985              6.530
 Vibration     3          0.595              1.980              5.071
 Vibration     4          0.595              1.978              4.913
 Vibration     5          0.598              1.970              4.245
 Vibration     6          0.611              1.927              2.999
 Vibration     7          0.624              1.884              2.481
 Vibration     8          0.625              1.879              2.434
 Vibration     9          0.632              1.857              2.253
 Vibration    10          0.655              1.787              1.837
 Vibration    11          0.661              1.769              1.757
 Vibration    12          0.683              1.701              1.500
 Vibration    13          0.687              1.690              1.468
 Vibration    14          0.731              1.564              1.142
 Vibration    15          0.761              1.482              0.983
 Vibration    16          0.794              1.398              0.848
 Vibration    17          0.805              1.371              0.809
 Vibration    18          0.815              1.345              0.774
 Vibration    19          0.850              1.261              0.671
 Vibration    20          0.883              1.187              0.591
 Vibration    21          0.892              1.168              0.572
 Vibration    22          0.895              1.162              0.566
 Vibration    23          0.911              1.127              0.532

 Normal termination of Gaussian 09 at Fri Apr 21 15:35:01 2017.
