 Gaussian 09, Revision B.01,
 Gaussian 09:  EM64L-G09RevB.01 12-Aug-2010

 ----------------------------------------------------------------------
 #p opt=(verytight,maxcycles=1000) SCF=(maxcycles=1024) int=(grid=ultra
 fine) CPHF=(grid=fine) freq rb3lyp/aug-cc-pvdz
 ----------------------------------------------------------------------

 --------------------------------------
 m-NO2-Ph-Ph-m-NO2-RB3LYP-aug-cc-pVDZ--
 --------------------------------------
 Symbolic Z-matrix:
 Charge =  0 Multiplicity = 1

 SCF Done:  E(RB3LYP) =  -872.417238820     A.U. after   38 cycles
 SCF Done:  E(RB3LYP) =  -872.429575732     A.U. after  116 cycles
 SCF Done:  E(RB3LYP) =  -872.419772947     A.U. after  149 cycles
 SCF Done:  E(RB3LYP) =  -872.429943801     A.U. after   20 cycles
 SCF Done:  E(RB3LYP) =  -872.427752599     A.U. after   23 cycles
 SCF Done:  E(RB3LYP) =  -872.430952624     A.U. after  143 cycles
 SCF Done:  E(RB3LYP) =  -872.429561350     A.U. after   48 cycles
 SCF Done:  E(RB3LYP) =  -872.431036152     A.U. after  496 cycles
 SCF Done:  E(RB3LYP) =  -872.430648157     A.U. after   30 cycles
 SCF Done:  E(RB3LYP) =  -872.431161502     A.U. after   79 cycles
 SCF Done:  E(RB3LYP) =  -872.431193520     A.U. after  104 cycles
 SCF Done:  E(RB3LYP) =  -872.431205965     A.U. after   43 cycles
 SCF Done:  E(RB3LYP) =  -872.431206449     A.U. after   20 cycles
 SCF Done:  E(RB3LYP) =  -872.431206475     A.U. after   23 cycles
 SCF Done:  E(RB3LYP) =  -872.431206480     A.U. after   16 cycles
 SCF Done:  E(RB3LYP) =  -872.431206480     A.U. after   15 cycles
 SCF Done:  E(RB3LYP) =  -872.431206481     A.U. after   16 cycles
 SCF Done:  E(RB3LYP) =  -872.431206481     A.U. after   11 cycles
 SCF Done:  E(RB3LYP) =  -872.431206481     A.U. after   22 cycles
 Optimization completed.
    -- Stationary point found.
 Normal termination of Gaussian 09 at Mon Apr 24 21:05:59 2017.

 ----------------------------------------------------------------------
 #P Geom=AllCheck Guess=TCheck SCRF=Check GenChk RB3LYP/Aug-CC-pVDZ Fre
 q
 ----------------------------------------------------------------------

 m-NO2-Ph-Ph-m-NO2-RB3LYP-aug-cc-pVDZ--
 --------------------------------------
 Redundant internal coordinates taken from checkpoint file:
 /home/ubuntu/g09/Gau-23211.chk
 Charge =  0 Multiplicity = 1

                         Standard orientation:
 ---------------------------------------------------------------------
 Center     Atomic      Atomic             Coordinates (Angstroms)
 Number     Number       Type             X           Y           Z
 ---------------------------------------------------------------------
      1          6           0       -3.057926    0.177210   -0.057886
      2          6           0       -1.803435   -0.429338   -0.068045
      3          6           0       -0.675047    0.311775    0.314787
      4          6           0       -0.855099    1.654442    0.697874
      5          6           0       -2.122029    2.242657    0.699455
      6          6           0       -3.245429    1.506918    0.319057
      7          1           0       -1.722472   -1.461746   -0.397319
      8          1           0        0.003804    2.242262    1.020217
      9          1           0       -2.236499    3.281573    1.007118
     10          1           0       -4.242761    1.938354    0.311240
     11          6           0        0.675123   -0.311760    0.314639
     12          6           0        0.855267   -1.654410    0.697742
     13          6           0        1.803419    0.429335   -0.068499
     14          6           0        2.122196   -2.242625    0.699044
     15          1           0       -0.003559   -2.242215    1.020318
     16          6           0        3.057912   -0.177213   -0.058614
     17          1           0        1.722378    1.461729   -0.397800
     18          6           0        3.245505   -1.506904    0.318344
     19          1           0        2.236740   -3.281528    1.006727
     20          1           0        4.242835   -1.938341    0.310306
     21          7           0       -4.232638   -0.621619   -0.470503
     22          8           0       -4.044645   -1.793379   -0.788438
     23          8           0       -5.327948   -0.066877   -0.468755
     24          7           0        4.232525    0.621597   -0.471550
     25          8           0        4.044456    1.793343   -0.789493
     26          8           0        5.327835    0.066855   -0.470042
 ---------------------------------------------------------------------

 SCF Done:  E(RB3LYP) =  -872.431206480     A.U. after    7 cycles

 The electronic state is 1-A.
 Alpha  occ. eigenvalues --  -19.19910 -19.19910 -19.19895 -19.19895 -14.58670
 Alpha  occ. eigenvalues --  -14.58670 -10.27286 -10.27286 -10.24626 -10.24600
 Alpha  occ. eigenvalues --  -10.23796 -10.23795 -10.23697 -10.23697 -10.23628
 Alpha  occ. eigenvalues --  -10.23628 -10.23373 -10.23372  -1.24909  -1.24908
 Alpha  occ. eigenvalues --   -1.07644  -1.07644  -0.92402  -0.90787  -0.84654
 Alpha  occ. eigenvalues --   -0.82499  -0.80955  -0.77723  -0.72912  -0.71962
 Alpha  occ. eigenvalues --   -0.67468  -0.64817  -0.61869  -0.60596  -0.58835
 Alpha  occ. eigenvalues --   -0.56688  -0.55335  -0.55329  -0.53867  -0.53665
 Alpha  occ. eigenvalues --   -0.53336  -0.52580  -0.50707  -0.48848  -0.48363
 Alpha  occ. eigenvalues --   -0.47531  -0.46687  -0.42408  -0.41854  -0.41028
 Alpha  occ. eigenvalues --   -0.40460  -0.40296  -0.38388  -0.33545  -0.33436
 Alpha  occ. eigenvalues --   -0.33247  -0.33115  -0.32463  -0.31456  -0.31406
 Alpha  occ. eigenvalues --   -0.30400  -0.30298  -0.27549
 Alpha virt. eigenvalues --   -0.11513  -0.11491  -0.07813  -0.04438  -0.03244
 Alpha virt. eigenvalues --   -0.02158  -0.01379  -0.01176   0.00016   0.00652
 Alpha virt. eigenvalues --    0.00945   0.01764   0.02413   0.03183   0.03377

 Mulliken atomic charges:
              1
     1  C   -0.350959
     2  C    1.300271
     3  C    1.383404
     4  C    0.749609
     5  C   -0.080905
     6  C    1.309185
     7  H   -1.064833
     8  H   -1.000345
     9  H   -0.789851
    10  H   -0.863589
    11  C    1.383403
    12  C    0.749610
    13  C    1.300270
    14  C   -0.080905
    15  H   -1.000345
    16  C   -0.350959
    17  H   -1.064833
    18  C    1.309186
    19  H   -0.789851
    20  H   -0.863589
    21  N    0.788083
    22  O   -0.676110
    23  O   -0.703960
    24  N    0.788083
    25  O   -0.676110
    26  O   -0.703960
 Sum of Mulliken atomic charges =   0.00000

 Dipole moment (field-independent basis, Debye):
    X=              0.0003    Y=              0.0001    Z=              2.5855  Tot=              2.5855
 Quadrupole moment (field-independent basis, Debye-Ang):
   XX=           -145.3106   YY=            -95.9162   ZZ=           -103.8991
   XY=            -19.9087   XZ=              0.0054   YZ=              0.0022

  Exact polarizability: 270.611  -9.667 188.318  -0.020  -0.001 101.499
 Approx polarizability: 395.870 -29.648 356.668  -0.027  -0.001 168.342

                     1                      2                      3
                     A                      A                      A
 Frequencies --    29.9109                42.3926                47.4084
 Red. masses --     8.4372                13.9189                13.2772
 Frc consts  --     0.0044                 0.0147                 0.0176
 IR Inten    --     4.0148                 0.0172                 0.2884

                     4                      5                      6
                     A                      A                      A
 Frequencies --    76.5311                89.7237               165.5856
 Red. masses --     7.3285                 5.0266                 5.6568
 Frc consts  --     0.0253                 0.0238                 0.0914
 IR Inten    --     2.9711                 0.3757                 0.2584

                     7                      8                      9
                     A                      A                      A
 Frequencies --   170.4795               187.6926               234.7884
 Red. masses --     8.2237                 5.2794                 4.8143
 Frc consts  --     0.1408                 0.1096                 0.1564
 IR Inten    --     0.3018                 2.0170                 1.0110

                    10                     11                     12
                     A                      A                      A
 Frequencies --   278.0427               300.1661               370.3391
 Red. masses --     8.9889                 5.4832                 5.3954
 Frc consts  --     0.4094                 0.2911                 0.4360
 IR Inten    --     0.0855                 0.3032                 0.3314

                    13                     14                     15
                     A                      A                      A
 Frequencies --   396.1705               414.1715               435.3646
 Red. masses --     9.4204                 4.8614                 3.2720
 Frc consts  --     0.8711                 0.4913                 0.3654
 IR Inten    --     1.7255                 0.2693                 0.5950

                    16                     17                     18
                     A                      A                      A
 Frequencies --   441.8024               502.9314               530.2196
 Red. masses --     3.9106                 6.6584                 7.9278
 Frc consts  --     0.4497                 0.9923                 1.3131
 IR Inten    --     0.4728                 2.3733                 3.0520

                    19                     20                     21
                     A                      A                      A
 Frequencies --   565.3221               584.9897               627.9610
 Red. masses --     5.1752                 5.0586                 7.1894
 Frc consts  --     0.9745                 1.0200                 1.6704
 IR Inten    --     0.5905                 0.2824                 9.1798

                    22                     23                     24
                     A                      A                      A
 Frequencies --   669.2611               689.1671               697.2994
 Red. masses --     7.0944                 2.6790                 2.2673
 Frc consts  --     1.8722                 0.7497                 0.6495
 IR Inten    --     0.1465                19.9591                 4.5058

                    25                     26                     27
                     A                      A                      A
 Frequencies --   707.2796               747.4203               768.1927
 Red. masses --     4.5301                 2.9107                 5.5164
 Frc consts  --     1.3352                 0.9580                 1.9180
 IR Inten    --    41.9421                71.5602                 1.5047

                    28                     29                     30
                     A                      A                      A
 Frequencies --   793.6173               817.5213               823.5487
 Red. masses --     9.7796                 1.8095                 1.6293
 Frc consts  --     3.6290                 0.7125                 0.6511
 IR Inten    --     4.0946                16.6124                 1.4748

                    31                     32                     33
                     A                      A                      A
 Frequencies --   866.1650               911.2644               919.9402
 Red. masses --    11.0822                 1.5773                 4.1555
 Frc consts  --     4.8987                 0.7717                 2.0720
 IR Inten    --    56.7705                 3.9500                 9.1766

                    34                     35                     36
                     A                      A                      A
 Frequencies --   934.8833               948.3672               949.7628
 Red. masses --     1.6402                 1.4550                 1.4332
 Frc consts  --     0.8446                 0.7710                 0.7617
 IR Inten    --     3.1474                 3.9371                 0.9636

                    37                     38                     39
                     A                      A                      A
 Frequencies --  1001.6711              1002.1574              1010.1381
 Red. masses --     1.3776                 1.3509                 6.2324
 Frc consts  --     0.8144                 0.7993                 3.7469
 IR Inten    --     0.2452                 0.1601                 0.6039

                    40                     41                     42
                     A                      A                      A
 Frequencies --  1014.5268              1066.9293              1102.1627
 Red. masses --     5.4096                 2.2027                 1.4333
 Frc consts  --     3.2805                 1.4773                 1.0258
 IR Inten    --     0.0179                 6.6978                 5.4663

                    43                     44                     45
                     A                      A                      A
 Frequencies --  1105.0970              1115.9357              1120.3723
 Red. masses --     1.5650                 1.9675                 2.6264
 Frc consts  --     1.1261                 1.4436                 1.9424
 IR Inten    --    16.1783                 0.7845                89.8075

                    46                     47                     48
                     A                      A                      A
 Frequencies --  1186.4544              1186.9036              1281.4607
 Red. masses --     1.1659                 1.1402                 1.9540
 Frc consts  --     0.9670                 0.9464                 1.8906
 IR Inten    --     3.1149                 0.0821                 0.0104

                    49                     50                     51
                     A                      A                      A
 Frequencies --  1286.1087              1319.8081              1352.2235
 Red. masses --     1.5042                 1.8193                 3.8610
 Frc consts  --     1.4659                 1.8671                 4.1595
 IR Inten    --    14.7548                 0.2743                17.8085

                    52                     53                     54
                     A                      A                      A
 Frequencies --  1359.4057              1381.8020              1384.1565
 Red. masses --     8.8919                14.1334                14.3382
 Frc consts  --     9.6815                15.8997                16.1851
 IR Inten    --     1.1273               579.0999                40.1590

                    55                     56                     57
                     A                      A                      A
 Frequencies --  1439.6753              1472.4558              1489.9364
 Red. masses --     3.3024                 3.0860                 2.3539
 Frc consts  --     4.0328                 3.9421                 3.0787
 IR Inten    --     9.2440                 0.6631                16.1693

                    58                     59                     60
                     A                      A                      A
 Frequencies --  1519.3201              1594.1993              1596.7783
 Red. masses --     3.1655                 8.8286                10.1979
 Frc consts  --     4.3051                13.2199                15.3197
 IR Inten    --     0.8091               412.8749                 9.4681

                    61                     62                     63
                     A                      A                      A
 Frequencies --  1613.0904              1626.3043              1660.4492
 Red. masses --     6.6718                 6.9489                 7.5896
 Frc consts  --    10.2284                10.8285                12.3288
 IR Inten    --    97.8296                 0.8257                 0.6619

                    64                     65                     66
                     A                      A                      A
 Frequencies --  1661.9540              3187.5660              3187.6935
 Red. masses --     7.4995                 1.0879                 1.0878
 Frc consts  --    12.2046                 6.5124                 6.5124
 IR Inten    --    18.7074                 0.0019                 8.5662

                    67                     68                     69
                     A                      A                      A
 Frequencies --  3202.5456              3202.6994              3229.8525
 Red. masses --     1.0947                 1.0949                 1.0910
 Frc consts  --     6.6149                 6.6167                 6.7054
 IR Inten    --     8.4980                 0.9825                 7.8852

                    70                     71                     72
                     A                      A                      A
 Frequencies --  3229.8865              3235.8064              3235.8520
 Red. masses --     1.0914                 1.0939                 1.0939
 Frc consts  --     6.7083                 6.7484                 6.7487
 IR Inten    --     0.8543                10.0309                 0.2403

 - Thermochemistry -
 -------------------
 Temperature   298.150 Kelvin.  Pressure   1.00000 Atm.
 Atom     1 has atomic number  6 and mass  12.00000

 Molecular mass:   244.04841 amu.
 Principal axes and moments of inertia in atomic units:
                           1         2         3
     Eigenvalues --  1685.114309798.22525**********
           X            0.99994  -0.01136   0.00012
           Y            0.01136   0.99994   0.00002
           Z           -0.00012  -0.00002   1.00000
 This molecule is an asymmetric top.
 Rotational symmetry number  1.
 Warning -- assumption of classical behavior for rotation
           may cause significant error
 Rotational temperatures (Kelvin)      0.05140     0.00884     0.00787
 Rotational constants (GHZ):           1.07099     0.18419     0.16391
 Zero-point vibrational energy     486874.5 (Joules/Mol)
                                  116.36580 (Kcal/Mol)
 Warning -- explicit consideration of  20 degrees of freedom as
           vibrations may cause significant error
 Vibrational temperatures:     43.04    60.99    68.21   110.11   129.09
          (Kelvin)            238.24   245.28   270.05   337.81   400.04
                              431.87   532.83   570.00   595.90   626.39
                              635.65   723.61   762.87   813.37   841.67
                              903.49   962.92   991.56  1003.26  1017.62
                             1075.37  1105.26  1141.84  1176.23  1184.90
                             1246.22  1311.10  1323.59  1345.09  1364.49
                             1366.50  1441.18  1441.88  1453.36  1459.68
                             1535.07  1585.76  1589.99  1605.58  1611.96
                             1707.04  1707.69  1843.73  1850.42  1898.91
                             1945.55  1955.88  1988.10  1991.49  2071.37
                             2118.53  2143.68  2185.96  2293.69  2297.40
                             2320.87  2339.89  2389.01  2391.18  4586.19
                             4586.37  4607.74  4607.96  4647.03  4647.08
                             4655.60  4655.66

 Zero-point correction=                           0.185441 (Hartree/Particle)
 Thermal correction to Energy=                    0.199558
 Thermal correction to Enthalpy=                  0.200502
 Thermal correction to Gibbs Free Energy=         0.142125
 Sum of electronic and zero-point Energies=           -872.245766
 Sum of electronic and thermal Energies=              -872.231649
 Sum of electronic and thermal Enthalpies=            -872.230704
 Sum of electronic and thermal Free Energies=         -872.289081

                     E (Thermal)             CV                S
                      KCal/Mol        Cal/Mol-Kelvin    Cal/Mol-Kelvin
 Total                  125.224             53.810            122.865
 Electronic               0.000              0.000              0.000
 Translational            0.889              2.981             42.378
 Rotational               0.889              2.981             33.563
 Vibrational            123.447             47.848             46.924
 Vibration     1          0.594              1.984              5.835
 Vibration     2          0.595              1.980              5.144
 Vibration     3          0.595              1.979              4.923
 Vibration     4          0.599              1.965              3.978
 Vibration     5          0.602              1.956              3.666
 Vibration     6          0.624              1.885              2.485
 Vibration     7          0.626              1.879              2.430
 Vibration     8          0.632              1.857              2.251
 Vibration     9          0.655              1.788              1.842
 Vibration    10          0.679              1.714              1.546
 Vibration    11          0.693              1.673              1.416
 Vibration    12          0.742              1.533              1.078
 Vibration    13          0.763              1.478              0.977
 Vibration    14          0.778              1.439              0.912
 Vibration    15          0.796              1.393              0.841
 Vibration    16          0.802              1.379              0.821
 Vibration    17          0.858              1.244              0.651
 Vibration    18          0.885              1.183              0.587
 Vibration    19          0.921              1.106              0.513
 Vibration    20          0.942              1.064              0.476

 Normal termination of Gaussian 09 at Mon Apr 24 23:13:06 2017.
