 Gaussian 09, Revision B.01,
 Gaussian 09:  EM64L-G09RevB.01 12-Aug-2010

 ----------------------------------------------------------------------
 #p Temperature=348.15 int=(grid=ultrafine) CPHF=(grid=fine) freq rb3ly
 p/aug-cc-pvdz
 ----------------------------------------------------------------------

 ---------------------------
 NO2-Ph-RB3LYP-aug-cc-pVDZ--
 ---------------------------
 Symbolic Z-matrix:
 Charge =  0 Multiplicity = 1

                         Standard orientation:
 ---------------------------------------------------------------------
 Center     Atomic      Atomic             Coordinates (Angstroms)
 Number     Number       Type             X           Y           Z
 ---------------------------------------------------------------------
      1          6           0       -2.521220    0.000000    0.000000
      2          6           0       -1.824620   -1.214040    0.000000
      3          6           0       -0.428740   -1.222860    0.000000
      4          6           0        0.244850    0.000000    0.000000
      5          6           0       -0.428740    1.222860    0.000000
      6          6           0       -1.824620    1.214040    0.000000
      7          1           0       -3.611540    0.000000    0.000000
      8          1           0       -2.369250   -2.157980    0.000000
      9          1           0        0.138730   -2.150050    0.000000
     10          1           0        0.138730    2.150050    0.000000
     11          1           0       -2.369240    2.157980    0.000000
     12          7           0        1.722340    0.000000    0.000000
     13          8           0        2.294670   -1.087270    0.000000
     14          8           0        2.294670    1.087270    0.000000
 ---------------------------------------------------------------------

 SCF Done:  E(RB3LYP) =  -436.813498727     A.U. after   14 cycles

 The electronic state is 1-A'.
 Alpha  occ. eigenvalues --  -19.19063 -19.19062 -14.57827 -10.26344 -10.22876
 Alpha  occ. eigenvalues --  -10.22873 -10.22774 -10.22486 -10.22480  -1.24054
 Alpha  occ. eigenvalues --   -1.06771  -0.90260  -0.81907  -0.78538  -0.71428
 Alpha  occ. eigenvalues --   -0.64375  -0.60970  -0.57509  -0.54491  -0.52737
 Alpha  occ. eigenvalues --   -0.52121  -0.48349  -0.47588  -0.45791  -0.40316
 Alpha  occ. eigenvalues --   -0.39947  -0.38147  -0.32632  -0.32323  -0.30603
 Alpha  occ. eigenvalues --   -0.29489  -0.29025
 Alpha virt. eigenvalues --   -0.10638  -0.04661  -0.02007  -0.01828   0.00061
 Alpha virt. eigenvalues --    0.00667   0.02707   0.02889   0.04214   0.04343
 Alpha virt. eigenvalues --    0.07020   0.07211   0.07560   0.08223   0.08529

 Mulliken atomic charges:
              1
     1  C    0.635935
     2  C    0.616687
     3  C    0.756955
     4  C    1.097718
     5  C    0.756936
     6  C    0.616723
     7  H   -0.735848
     8  H   -0.731513
     9  H   -0.794084
    10  H   -0.794087
    11  H   -0.731521
    12  N    0.660635
    13  O   -0.677269
    14  O   -0.677268
 Sum of Mulliken atomic charges =   0.00000

 Dipole moment (field-independent basis, Debye):
    X=             -4.7722    Y=              0.0000    Z=              0.0000  Tot=              4.7722
 Quadrupole moment (field-independent basis, Debye-Ang):
   XX=            -55.9766   YY=            -48.2085   ZZ=            -53.2679
   XY=              0.0000   XZ=              0.0000   YZ=              0.0000

  Exact polarizability: 118.728   0.000  98.257   0.000   0.000  49.717
 Approx polarizability: 183.736   0.000 188.049   0.000   0.000  76.923

                     1                      2                      3
                    A"                     A"                     A'
 Frequencies --    55.8363               170.3137               253.9549
 Red. masses --     7.9853                 5.0867                 6.3968
 Frc consts  --     0.0147                 0.0869                 0.2431
 IR Inten    --     0.0000                 0.9334                 0.8212

                     4                      5                      6
                    A'                     A"                     A"
 Frequencies --   394.5410               418.2939               447.7650
 Red. masses --     9.2824                 2.8638                 3.5673
 Frc consts  --     0.8513                 0.2952                 0.4214
 IR Inten    --     1.1194                 0.0000                 0.6837

                     7                      8                      9
                    A'                     A'                     A'
 Frequencies --   523.2403               621.1006               691.0818
 Red. masses --     8.1972                 6.4091                 7.2188
 Frc consts  --     1.3223                 1.4567                 2.0313
 IR Inten    --     1.3224                 0.0521                 9.1843

                    10                     11                     12
                    A"                     A"                     A"
 Frequencies --   695.4139               716.9160               810.9421
 Red. masses --     2.4831                 1.9454                 2.7394
 Frc consts  --     0.7075                 0.5891                 1.0614
 IR Inten    --    14.1967                73.2428                 7.7918

                    13                     14                     15
                    A"                     A'                     A"
 Frequencies --   850.1109               860.6073               957.6740
 Red. masses --     1.2458                10.3976                 1.4301
 Frc consts  --     0.5305                 4.5373                 0.7728
 IR Inten    --     0.0000                31.5795                 3.0678

                    16                     17                     18
                    A"                     A'                     A"
 Frequencies --   995.4934              1012.9192              1016.8489
 Red. masses --     1.3768                 6.2306                 1.3521
 Frc consts  --     0.8039                 3.7664                 0.8237
 IR Inten    --     0.0000                 0.2400                 0.0451

                    19                     20                     21
                    A'                     A'                     A'
 Frequencies --  1039.0048              1093.2929              1117.4490
 Red. masses --     2.1123                 1.4206                 3.0907
 Frc consts  --     1.3435                 1.0004                 2.2738
 IR Inten    --     6.8618                 8.6200                34.1325

                    22                     23                     24
                    A'                     A'                     A'
 Frequencies --  1174.3846              1186.4201              1319.2757
 Red. masses --     1.0979                 1.2397                 1.3356
 Frc consts  --     0.8922                 1.0281                 1.3696
 IR Inten    --     0.5320                 1.9689                 0.0384

                    25                     26                     27
                    A'                     A'                     A'
 Frequencies --  1367.3689              1383.0849              1473.5007
 Red. masses --     7.7218                14.3172                 2.4292
 Frc consts  --     8.5063                16.1364                 3.1075
 IR Inten    --    13.8171               282.0842                 0.0613

                    28                     29                     30
                    A'                     A'                     A'
 Frequencies --  1494.8280              1591.4829              1629.6689
 Red. masses --     2.2125                10.8802                 5.9057
 Frc consts  --     2.9129                16.2365                 9.2411
 IR Inten    --     8.6608               228.6081                 3.6446

                    31                     32                     33
                    A'                     A'                     A'
 Frequencies --  1654.1164              3182.9480              3195.1631
 Red. masses --     7.6904                 1.0865                 1.0910
 Frc consts  --    12.3974                 6.4855                 6.5625
 IR Inten    --    39.0497                 0.6326                 8.8542

                    34                     35                     36
                    A'                     A'                     A'
 Frequencies --  3204.0504              3232.6919              3233.0764
 Red. masses --     1.0966                 1.0931                 1.0942
 Frc consts  --     6.6331                 6.7306                 6.7389
 IR Inten    --     7.7079                 0.5623                 5.1348

 - Thermochemistry -
 -------------------
 Temperature   348.150 Kelvin.  Pressure   1.00000 Atm.
 Atom     1 has atomic number  6 and mass  12.00000

 Molecular mass:   123.03203 amu.
 Principal axes and moments of inertia in atomic units:
                           1         2         3
     Eigenvalues --   456.325291411.546041867.87133
           X            1.00000   0.00000   0.00000
           Y            0.00000   1.00000   0.00000
           Z            0.00000   0.00000   1.00000
 This molecule is an asymmetric top.
 Rotational symmetry number  1.
 Warning -- assumption of classical behavior for rotation
           may cause significant error
 Rotational temperatures (Kelvin)      0.18981     0.06136     0.04637
 Rotational constants (GHZ):           3.95494     1.27856     0.96620
 Zero-point vibrational energy     269547.7 (Joules/Mol)
                                   64.42345 (Kcal/Mol)
 Warning -- explicit consideration of  11 degrees of freedom as
           vibrations may cause significant error
 Vibrational temperatures:     80.34   245.04   365.38   567.66   601.83
          (Kelvin)            644.23   752.83   893.62   994.31  1000.54
                             1031.48  1166.76  1223.12  1238.22  1377.88
                             1432.29  1457.36  1463.02  1494.89  1573.00
                             1607.76  1689.68  1706.99  1898.14  1967.34
                             1989.95  2120.04  2150.72  2289.79  2344.73
                             2379.90  4579.55  4597.12  4609.91  4651.12
                             4651.67

 Zero-point correction=                           0.102665 (Hartree/Particle)
 Thermal correction to Energy=                    0.111720
 Thermal correction to Enthalpy=                  0.112823
 Thermal correction to Gibbs Free Energy=         0.063880
 Sum of electronic and zero-point Energies=           -436.710833
 Sum of electronic and thermal Energies=              -436.701779
 Sum of electronic and thermal Enthalpies=            -436.700676
 Sum of electronic and thermal Free Energies=         -436.749619

                     E (Thermal)             CV                S
                      KCal/Mol        Cal/Mol-Kelvin    Cal/Mol-Kelvin
 Total                   70.105             30.088             88.215
 Electronic               0.000              0.000              0.000
 Translational            1.038              2.981             41.106
 Rotational               1.038              2.981             29.040
 Vibrational             68.030             24.127             18.069
 Vibration     1          0.695              1.978              4.906
 Vibration     2          0.720              1.907              2.726
 Vibration     3          0.754              1.814              1.980
 Vibration     4          0.839              1.600              1.222
 Vibration     5          0.856              1.558              1.130
 Vibration     6          0.879              1.505              1.025
 Vibration     7          0.943              1.365              0.802
 Vibration     8          1.036              1.179              0.583
 Vibration     9          1.108              1.049              0.464
 Vibration    10          1.113              1.041              0.457
 Vibration    11          1.137              1.002              0.426

 Optimization completed.
    -- Stationary point found.
 Normal termination of Gaussian 09 at Sat Apr 30 08:45:06 2005.
