 Gaussian 09, Revision B.01,
 Gaussian 09:  EM64L-G09RevB.01 12-Aug-2010

 ----------------------------------------------------------------------
 #p opt=(verytight,maxcycles=1000) int=(grid=ultrafine) CPHF=(grid=fine
 ) freq rb3lyp/aug-cc-pvdz
 ----------------------------------------------------------------------

 -------------------------------
 o-NO2-Ph-OTf-RB3LYP-aug-cc-pVDZ
 -------------------------------
 Symbolic Z-matrix:
 Charge =  0 Multiplicity = 1

 SCF Done:  E(RB3LYP) =  -1397.62774154     A.U. after   16 cycles
 SCF Done:  E(RB3LYP) =  -1397.66875706     A.U. after   16 cycles
 SCF Done:  E(RB3LYP) =  -1397.68589373     A.U. after   16 cycles
 SCF Done:  E(RB3LYP) =  -1397.68826968     A.U. after   16 cycles
 SCF Done:  E(RB3LYP) =  -1397.67590025     A.U. after   17 cycles
 SCF Done:  E(RB3LYP) =  -1397.68991234     A.U. after   16 cycles
 SCF Done:  E(RB3LYP) =  -1397.69134821     A.U. after   16 cycles
 SCF Done:  E(RB3LYP) =  -1397.69183764     A.U. after   14 cycles
 SCF Done:  E(RB3LYP) =  -1397.69220851     A.U. after   14 cycles
 SCF Done:  E(RB3LYP) =  -1397.69235253     A.U. after   16 cycles
 SCF Done:  E(RB3LYP) =  -1397.69254716     A.U. after    8 cycles
 SCF Done:  E(RB3LYP) =  -1397.69254716     A.U. after    7 cycles
 SCF Done:  E(RB3LYP) =  -1397.69254716     A.U. after    6 cycles
 SCF Done:  E(RB3LYP) =  -1397.69254716     A.U. after    5 cycles
 SCF Done:  E(RB3LYP) =  -1397.69254716     A.U. after    5 cycles
 SCF Done:  E(RB3LYP) =  -1397.69254716     A.U. after    4 cycles
 SCF Done:  E(RB3LYP) =  -1397.69254716     A.U. after    4 cycles
 SCF Done:  E(RB3LYP) =  -1397.69254716     A.U. after    4 cycles
 SCF Done:  E(RB3LYP) =  -1397.69254716     A.U. after    4 cycles
 Optimization completed.
    -- Stationary point found.
 Normal termination of Gaussian 09 at Fri Apr 21 19:30:44 2017.

 ----------------------------------------------------------------------
 #P Geom=AllCheck Guess=TCheck SCRF=Check GenChk RB3LYP/Aug-CC-pVDZ Fre
 q
 ----------------------------------------------------------------------

 o-NO2-Ph-OTf-RB3LYP-aug-cc-pVDZ
 -------------------------------
 Redundant internal coordinates taken from checkpoint file:
 /home/ubuntu/g09/Gau-28904.chk
 Charge =  0 Multiplicity = 1

                         Standard orientation:
 ---------------------------------------------------------------------
 Center     Atomic      Atomic             Coordinates (Angstroms)
 Number     Number       Type             X           Y           Z
 ---------------------------------------------------------------------
      1          6           0       -3.074127   -2.065163   -0.292784
      2          6           0       -1.714121   -1.852176   -0.526410
      3          6           0       -1.186058   -0.562616   -0.447681
      4          6           0       -2.027327    0.513225   -0.120807
      5          6           0       -3.383610    0.295442    0.128763
      6          6           0       -3.909149   -0.992505    0.033894
      7          1           0       -3.479263   -3.074172   -0.364403
      8          1           0       -1.044915   -2.675566   -0.769450
      9         16           0        1.236356   -0.716199    0.544133
     10          6           0        2.688428    0.234186   -0.250763
     11          8           0        0.168011   -0.377147   -0.719420
     12          8           0        0.798939   -0.016436    1.763251
     13          8           0        1.568300   -2.150448    0.542197
     14          9           0        2.927292   -0.252666   -1.466819
     15          9           0        2.405559    1.527386   -0.314015
     16          9           0        3.749036    0.032997    0.536235
     17          1           0       -4.970334   -1.156463    0.216914
     18          7           0       -1.539486    1.903746   -0.049521
     19          8           0       -2.102156    2.647852    0.748240
     20          8           0       -0.633675    2.233750   -0.806482
     21          1           0       -4.007329    1.146789    0.391284
 ---------------------------------------------------------------------

 SCF Done:  E(RB3LYP) =  -1397.69254716     A.U. after    1 cycles

 The electronic state is 1-A.
 Alpha  occ. eigenvalues --  -89.17940 -24.79806 -24.79771 -24.79663 -19.24877
 Alpha  occ. eigenvalues --  -19.20586 -19.20478 -19.20185 -19.20153 -14.59127
 Alpha  occ. eigenvalues --  -10.50729 -10.31072 -10.28396 -10.24429 -10.24226
 Alpha  occ. eigenvalues --  -10.24049 -10.23822  -8.20836  -6.17273  -6.17083
 Alpha  occ. eigenvalues --   -6.17001  -1.37797  -1.29190  -1.29088  -1.25314
 Alpha  occ. eigenvalues --   -1.18319  -1.09900  -1.07988  -1.06074  -0.91800
 Alpha  occ. eigenvalues --   -0.83693  -0.81657  -0.78365  -0.73586  -0.71392
 Alpha  occ. eigenvalues --   -0.66681  -0.65337  -0.65218  -0.63725  -0.62182
 Alpha  occ. eigenvalues --   -0.58397  -0.56982  -0.55745  -0.54047  -0.53219
 Alpha  occ. eigenvalues --   -0.52595  -0.52057  -0.51744  -0.51239  -0.50148
 Alpha  occ. eigenvalues --   -0.49000  -0.48711  -0.48547  -0.47155  -0.46492
 Alpha  occ. eigenvalues --   -0.43441  -0.42278  -0.41302  -0.39937  -0.39017
 Alpha  occ. eigenvalues --   -0.37217  -0.36353  -0.34891  -0.33426  -0.33141
 Alpha  occ. eigenvalues --   -0.32310  -0.30150  -0.29913
 Alpha virt. eigenvalues --   -0.11347  -0.07291  -0.04480  -0.03102  -0.02424
 Alpha virt. eigenvalues --   -0.01816  -0.00250   0.00085   0.01545   0.01904
 Alpha virt. eigenvalues --    0.02452   0.03023   0.03542   0.03869   0.05101

 Mulliken atomic charges:
              1
     1  C    0.761482
     2  C    1.153501
     3  C    0.337256
     4  C    0.224590
     5  C    1.402841
     6  C    0.520851
     7  H   -0.725385
     8  H   -0.887446
     9  S    2.209698
    10  C    1.131537
    11  O   -0.955712
    12  O   -0.859712
    13  O   -0.864278
    14  F   -0.416556
    15  F   -0.406669
    16  F   -0.395670
    17  H   -0.723874
    18  N    0.637123
    19  O   -0.653532
    20  O   -0.632404
    21  H   -0.857642
 Sum of Mulliken atomic charges =   0.00000

 Dipole moment (field-independent basis, Debye):
    X=             -3.0812    Y=             -3.1950    Z=             -1.4885  Tot=              4.6816
 Quadrupole moment (field-independent basis, Debye-Ang):
   XX=            -83.5763   YY=           -108.0803   ZZ=           -107.0262
   XY=             10.4115   XZ=              0.0143   YZ=              1.2440

  Exact polarizability: 169.762   7.990 148.182  -8.438   6.865  96.214
 Approx polarizability: 250.626   2.929 249.662 -33.010  19.678 175.303

                     1                      2                      3
                     A                      A                      A
 Frequencies --    15.3281                29.0782                42.5935
 Red. masses --    12.6848                11.9681                16.0884
 Frc consts  --     0.0018                 0.0060                 0.0172
 IR Inten    --     1.4985                 1.1767                 0.3533

                     4                      5                      6
                     A                      A                      A
 Frequencies --    52.0937                67.9748               119.3203
 Red. masses --    15.2943                 8.5300                 6.9599
 Frc consts  --     0.0245                 0.0232                 0.0584
 IR Inten    --     0.3338                 0.8910                 1.3298

                     7                      8                      9
                     A                      A                      A
 Frequencies --   137.9869               168.2342               187.1271
 Red. masses --     6.9014                16.6618                14.7059
 Frc consts  --     0.0774                 0.2778                 0.3034
 IR Inten    --     0.9417                 1.4652                 2.3373

                    10                     11                     12
                     A                      A                      A
 Frequencies --   243.7156               246.5118               288.0699
 Red. masses --     6.6905                16.5723                12.1389
 Frc consts  --     0.2341                 0.5933                 0.5935
 IR Inten    --     0.3792                 6.6802                 1.8206

                    13                     14                     15
                     A                      A                      A
 Frequencies --   292.7310               344.6592               373.8146
 Red. masses --    12.2688                10.9314                11.3688
 Frc consts  --     0.6194                 0.7651                 0.9360
 IR Inten    --     1.0933                 1.1125                 2.2263

                    16                     17                     18
                     A                      A                      A
 Frequencies --   417.3284               433.8730               462.8848
 Red. masses --     5.7769                 6.8540                 8.9912
 Frc consts  --     0.5928                 0.7602                 1.1350
 IR Inten    --     2.6536                 4.4699                13.6245

                    19                     20                     21
                     A                      A                      A
 Frequencies --   510.7675               525.3962               539.3736
 Red. masses --     8.9031                 7.9458                17.5046
 Frc consts  --     1.3685                 1.2923                 3.0004
 IR Inten    --    31.1452                40.3944                 1.3037

                    22                     23                     24
                     A                      A                      A
 Frequencies --   548.1881               575.0318               620.6721
 Red. masses --    11.4923                 5.9600                 6.2412
 Frc consts  --     2.0348                 1.1611                 1.4166
 IR Inten    --    21.0794                 7.1705                47.4764

                    25                     26                     27
                     A                      A                      A
 Frequencies --   653.9478               684.5834               710.2915
 Red. masses --     7.6815                 9.1254                 3.6526
 Frc consts  --     1.9355                 2.5197                 1.0857
 IR Inten    --    79.4698               141.9321                11.1764

                    28                     29                     30
                     A                      A                      A
 Frequencies --   753.5585               768.7289               793.0165
 Red. masses --    14.6789                 2.5077                 2.0220
 Frc consts  --     4.9111                 0.8731                 0.7492
 IR Inten    --    14.9619                48.6583                23.9968

                    31                     32                     33
                     A                      A                      A
 Frequencies --   827.9841               873.3264               889.2949
 Red. masses --     8.8383                 8.6977                 1.5757
 Frc consts  --     3.5700                 3.9085                 0.7342
 IR Inten    --    85.4290                75.7967                 0.9946

                    34                     35                     36
                     A                      A                      A
 Frequencies --   973.0842              1006.5219              1055.4463
 Red. masses --     1.3821                 1.3477                 4.0763
 Frc consts  --     0.7711                 0.8044                 2.6754
 IR Inten    --     2.6970                 0.2861               128.7704

                    37                     38                     39
                     A                      A                      A
 Frequencies --  1058.8742              1091.1797              1150.0100
 Red. masses --     3.6499                 3.6635                 6.8793
 Frc consts  --     2.4111                 2.5701                 5.3604
 IR Inten    --    82.9070                81.7671               191.5457

                    40                     41                     42
                     A                      A                      A
 Frequencies --  1160.3917              1176.6998              1202.0891
 Red. masses --     1.7170                 1.1934                 8.8401
 Frc consts  --     1.3622                 0.9736                 7.5263
 IR Inten    --    11.0554                 1.9556               180.2702

                    43                     44                     45
                     A                      A                      A
 Frequencies --  1215.3712              1229.4623              1277.6659
 Red. masses --     4.1246                11.4106                 1.5386
 Frc consts  --     3.5896                10.1622                 1.4798
 IR Inten    --    77.1901               165.9734                 6.3367

                    46                     47                     48
                     A                      A                      A
 Frequencies --  1302.2855              1354.7970              1389.2705
 Red. masses --    18.3048                 7.8829                14.3760
 Frc consts  --    18.2906                 8.5248                16.3478
 IR Inten    --   216.0622                 4.3414               235.0137

                    49                     50                     51
                     A                      A                      A
 Frequencies --  1464.3687              1498.2612              1601.2093
 Red. masses --     2.4199                 2.6446                10.6150
 Frc consts  --     3.0573                 3.4977                16.0349
 IR Inten    --     4.5594                47.8508               189.6829

                    52                     53                     54
                     A                      A                      A
 Frequencies --  1627.8025              1642.2093              3192.6763
 Red. masses --     6.7248                 7.8866                 1.0872
 Frc consts  --    10.4986                12.5314                 6.5294
 IR Inten    --    21.5708               102.1469                 1.7956

                    55                     56                     57
                     A                      A                      A
 Frequencies --  3206.0133              3217.2361              3226.9124
 Red. masses --     1.0927                 1.0958                 1.0946
 Frc consts  --     6.6173                 6.6824                 6.7153
 IR Inten    --     4.9244                 0.2586                 2.2987

 - Thermochemistry -
 -------------------
 Temperature   298.150 Kelvin.  Pressure   1.00000 Atm.
 Atom     1 has atomic number  6 and mass  12.00000

 Molecular mass:   270.97623 amu.
 Principal axes and moments of inertia in atomic units:
                           1         2         3
     Eigenvalues --  2361.954795615.687006916.49488
           X            0.99991   0.01313   0.00199
           Y           -0.01315   0.99987   0.00942
           Z           -0.00187  -0.00944   0.99995
 This molecule is an asymmetric top.
 Rotational symmetry number  1.
 Warning -- assumption of classical behavior for rotation
           may cause significant error
 Rotational temperatures (Kelvin)      0.03667     0.01542     0.01252
 Rotational constants (GHZ):           0.76409     0.32137     0.26093
 Zero-point vibrational energy     314123.4 (Joules/Mol)
                                   75.07728 (Kcal/Mol)
 Warning -- explicit consideration of  24 degrees of freedom as
           vibrations may cause significant error
 Vibrational temperatures:     22.05    41.84    61.28    74.95    97.80
          (Kelvin)            171.68   198.53   242.05   269.23   350.65
                              354.68   414.47   421.17   495.89   537.84
                              600.44   624.25   665.99   734.88   755.93
                              776.04   788.72   827.34   893.01   940.88
                              984.96  1021.95  1084.20  1106.03  1140.97
                             1191.28  1256.52  1279.50  1400.05  1448.16
                             1518.55  1523.48  1569.96  1654.61  1669.54
                             1693.01  1729.54  1748.65  1768.92  1838.27
                             1873.70  1949.25  1998.85  2106.90  2155.66
                             2303.78  2342.04  2362.77  4593.54  4612.73
                             4628.88  4642.80

 Zero-point correction=                           0.119643 (Hartree/Particle)
 Thermal correction to Energy=                    0.134946
 Thermal correction to Enthalpy=                  0.135890
 Thermal correction to Gibbs Free Energy=         0.073727
 Sum of electronic and zero-point Energies=          -1397.572904
 Sum of electronic and thermal Energies=             -1397.557601
 Sum of electronic and thermal Enthalpies=           -1397.556657
 Sum of electronic and thermal Free Energies=        -1397.618820

                     E (Thermal)             CV                S
                      KCal/Mol        Cal/Mol-Kelvin    Cal/Mol-Kelvin
 Total                   84.680             54.613            130.832
 Electronic               0.000              0.000              0.000
 Translational            0.889              2.981             42.690
 Rotational               0.889              2.981             32.884
 Vibrational             82.902             48.651             55.259
 Vibration     1          0.593              1.986              7.163
 Vibration     2          0.593              1.984              5.891
 Vibration     3          0.595              1.980              5.135
 Vibration     4          0.596              1.977              4.736
 Vibration     5          0.598              1.969              4.211
 Vibration     6          0.609              1.933              3.111
 Vibration     7          0.614              1.915              2.832
 Vibration     8          0.625              1.882              2.455
 Vibration     9          0.632              1.858              2.256
 Vibration    10          0.659              1.773              1.776
 Vibration    11          0.661              1.769              1.755
 Vibration    12          0.685              1.696              1.485
 Vibration    13          0.688              1.687              1.458
 Vibration    14          0.723              1.586              1.191
 Vibration    15          0.745              1.526              1.064
 Vibration    16          0.780              1.433              0.901
 Vibration    17          0.795              1.396              0.846
 Vibration    18          0.821              1.332              0.758
 Vibration    19          0.866              1.226              0.632
 Vibration    20          0.880              1.194              0.598
 Vibration    21          0.894              1.163              0.567
 Vibration    22          0.903              1.144              0.548
 Vibration    23          0.931              1.085              0.495
 Vibration    24          0.981              0.988              0.415

 Normal termination of Gaussian 09 at Fri Apr 21 20:41:12 2017.
