 Gaussian 09, Revision B.01,
 Gaussian 09:  EM64L-G09RevB.01 12-Aug-2010

 ----------------------------------------------------------------------
 #p opt=(verytight,maxcycles=1000) Int=(Grid=Ultrafine) CPHF=(Grid=Fine
 ) Freq rb3lyp/aug-cc-pvdz
 ----------------------------------------------------------------------

 ----------------------------------
 o-NO2-Ph-N2-OTf-RB3LYP-aug-cc-pVDZ
 ----------------------------------
 Symbolic Z-matrix:
 Charge =  0 Multiplicity = 1

 SCF Done:  E(RB3LYP) =  -1507.09146074     A.U. after   29 cycles
 SCF Done:  E(RB3LYP) =  -1507.10222830     A.U. after   26 cycles
 SCF Done:  E(RB3LYP) =  -1507.09327624     A.U. after   27 cycles
 SCF Done:  E(RB3LYP) =  -1507.10349739     A.U. after   26 cycles
 SCF Done:  E(RB3LYP) =  -1507.10590618     A.U. after   25 cycles
 SCF Done:  E(RB3LYP) =  -1507.10749109     A.U. after   27 cycles
 SCF Done:  E(RB3LYP) =  -1507.10994889     A.U. after   26 cycles
 SCF Done:  E(RB3LYP) =  -1507.11148957     A.U. after   28 cycles
 SCF Done:  E(RB3LYP) =  -1507.11259497     A.U. after   54 cycles
 SCF Done:  E(RB3LYP) =  -1507.11281322     A.U. after   26 cycles
 SCF Done:  E(RB3LYP) =  -1507.14947742     A.U. after    7 cycles
 SCF Done:  E(RB3LYP) =  -1507.14947742     A.U. after    8 cycles
 SCF Done:  E(RB3LYP) =  -1507.14947742     A.U. after    8 cycles
 SCF Done:  E(RB3LYP) =  -1507.14947742     A.U. after    8 cycles
 SCF Done:  E(RB3LYP) =  -1507.14947742     A.U. after    7 cycles
 SCF Done:  E(RB3LYP) =  -1507.14947742     A.U. after    6 cycles
 SCF Done:  E(RB3LYP) =  -1507.14947742     A.U. after    5 cycles
 SCF Done:  E(RB3LYP) =  -1507.14947742     A.U. after    5 cycles
 SCF Done:  E(RB3LYP) =  -1507.14947742     A.U. after    4 cycles
 Optimization completed.
    -- Stationary point found.
 Normal termination of Gaussian 09 at Sat Mar 26 05:00:25 2005.

 ----------------------------------------------------------------------
 #P Geom=AllCheck Guess=TCheck SCRF=Check GenChk RB3LYP/Aug-CC-pVDZ Fre
 q
 ----------------------------------------------------------------------

 o-NO2-Ph-N2-OTf-RB3LYP-aug-cc-pVDZ
 ----------------------------------
 Redundant internal coordinates taken from checkpoint file:
 /home/ubuntu/g09/Gau-3684.chk
 Charge =  0 Multiplicity = 1

                         Standard orientation:
 ---------------------------------------------------------------------
 Center     Atomic      Atomic             Coordinates (Angstroms)
 Number     Number       Type             X           Y           Z
 ---------------------------------------------------------------------
      1          6           0        1.359384    2.342031   -0.651279
      2          6           0        0.883615    1.027136   -0.687139
      3          6           0        1.773129    0.006744   -0.332324
      4          6           0        3.108284    0.267952    0.038221
      5          6           0        3.555189    1.579460    0.070060
      6          6           0        2.675292    2.615979   -0.275205
      7          1           0        0.680703    3.150996   -0.917957
      8          1           0       -0.140985    0.762375   -0.986943
      9          7           0        1.262967   -1.291708   -0.376230
     10          7           0        0.571864   -2.166486   -0.389145
     11         16           0       -2.349153   -0.823390   -0.307910
     12          6           0       -3.178477    0.673195    0.515953
     13          8           0       -1.698241   -0.221438   -1.534374
     14          8           0       -3.445103   -1.791550   -0.543829
     15          8           0       -1.312686   -1.218125    0.734823
     16          9           0       -2.258497    1.645057    0.747243
     17          9           0       -4.129929    1.184262   -0.280418
     18          9           0       -3.731584    0.334163    1.688789
     19          1           0        3.032020    3.645088   -0.246920
     20          1           0        4.583171    1.774663    0.365628
     21          7           0        4.032067   -0.822959    0.399950
     22          8           0        3.576791   -1.964742    0.372289
     23          8           0        5.177345   -0.521285    0.696150
 ---------------------------------------------------------------------

 SCF Done:  E(RB3LYP) =  -1507.14947742     A.U. after    2 cycles

 The electronic state is 1-A.
 Alpha  occ. eigenvalues --  -89.11132 -24.74873 -24.74529 -24.74526 -19.25411
 Alpha  occ. eigenvalues --  -19.25378 -19.13388 -19.12929 -19.12337 -14.64424
 Alpha  occ. eigenvalues --  -14.57688 -14.55770 -10.44100 -10.36564 -10.34435
 Alpha  occ. eigenvalues --  -10.29373 -10.29143 -10.28890 -10.28480  -8.13743
 Alpha  occ. eigenvalues --   -6.10089  -6.10060  -6.10036  -1.32089  -1.30644
 Alpha  occ. eigenvalues --   -1.23830  -1.23603  -1.23560  -1.13474  -1.10520
 Alpha  occ. eigenvalues --   -0.99701  -0.97838  -0.97226  -0.91482  -0.88708
 Alpha  occ. eigenvalues --   -0.80689  -0.76349  -0.72968  -0.70273  -0.66624
 Alpha  occ. eigenvalues --   -0.63982  -0.62351  -0.61245  -0.59899  -0.59750
 Alpha  occ. eigenvalues --   -0.59552  -0.58859  -0.58428  -0.56858  -0.55186
 Alpha  occ. eigenvalues --   -0.54735  -0.53106  -0.52146  -0.47704  -0.47514
 Alpha  occ. eigenvalues --   -0.46893  -0.46662  -0.46112  -0.45212  -0.44850
 Alpha  occ. eigenvalues --   -0.44337  -0.43554  -0.43413  -0.41648  -0.38704
 Alpha  occ. eigenvalues --   -0.38506  -0.37021  -0.36552  -0.35710  -0.33412
 Alpha  occ. eigenvalues --   -0.32736  -0.30201  -0.30051  -0.29011  -0.26294
 Alpha virt. eigenvalues --   -0.18575  -0.14534  -0.14205  -0.08486  -0.06590
 Alpha virt. eigenvalues --   -0.04225  -0.02106  -0.01195   0.00246   0.00871
 Alpha virt. eigenvalues --    0.01467   0.02313   0.03645   0.04010   0.04467

 Mulliken atomic charges:
              1
     1  C    0.387291
     2  C    1.730038
     3  C    0.455502
     4  C    0.969187
     5  C    1.059578
     6  C    0.261307
     7  H   -0.831384
     8  H   -0.888065
     9  N    0.409153
    10  N   -0.591348
    11  S    2.340135
    12  C    1.068374
    13  O   -0.979594
    14  O   -0.899899
    15  O   -0.949749
    16  F   -0.509414
    17  F   -0.422119
    18  F   -0.422066
    19  H   -0.710489
    20  H   -0.838833
    21  N    0.655665
    22  O   -0.650774
    23  O   -0.642495
 Sum of Mulliken atomic charges =   0.00000

 Dipole moment (field-independent basis, Debye):
    X=             10.7276    Y=              6.5201    Z=             -0.7084  Tot=             12.5736
 Quadrupole moment (field-independent basis, Debye-Ang):
   XX=           -129.6568   YY=           -105.2470   ZZ=           -117.3159
   XY=              5.3371   XZ=             -6.8197   YZ=             -0.4456

  Exact polarizability: 222.501  13.876 176.375  10.461  -4.262 101.631
 Approx polarizability: 326.944  38.726 325.200  22.889  -7.965 170.886

                     1                      2                      3
                     A                      A                      A
 Frequencies --    16.4345                23.1638                30.7533
 Red. masses --    12.4369                10.6551                14.7964
 Frc consts  --     0.0020                 0.0034                 0.0082
 IR Inten    --     0.2875                 1.4693                 0.5798

                     4                      5                      6
                     A                      A                      A
 Frequencies --    42.6913                49.4398                59.3807
 Red. masses --    12.9776                11.9054                11.8327
 Frc consts  --     0.0139                 0.0171                 0.0246
 IR Inten    --     3.6841                 2.6031                 1.2660

                     7                      8                      9
                     A                      A                      A
 Frequencies --   112.9019               119.6888               132.8885
 Red. masses --    14.0637                13.1333                 5.1953
 Frc consts  --     0.1056                 0.1108                 0.0541
 IR Inten    --    24.7243                 3.4415                 2.9453

                    10                     11                     12
                     A                      A                      A
 Frequencies --   179.5538               184.5307               194.2764
 Red. masses --    13.8255                16.1875                 6.6325
 Frc consts  --     0.2626                 0.3248                 0.1475
 IR Inten    --    41.9167                13.8597                 0.4189

                    13                     14                     15
                     A                      A                      A
 Frequencies --   203.3504               256.3484               278.0627
 Red. masses --    16.5134                 7.7108                17.8366
 Frc consts  --     0.4023                 0.2985                 0.8125
 IR Inten    --    37.9083                 1.3574                 5.4347

                    16                     17                     18
                     A                      A                      A
 Frequencies --   314.8664               329.3171               367.9813
 Red. masses --    17.3355                17.2254                10.8100
 Frc consts  --     1.0126                 1.1006                 0.8624
 IR Inten    --     0.3357                21.0066                 2.8778

                    19                     20                     21
                     A                      A                      A
 Frequencies --   390.3572               431.2408               443.6902
 Red. masses --     5.4390                11.7281                 4.2859
 Frc consts  --     0.4883                 1.2850                 0.4971
 IR Inten    --     9.7751                 1.3018                 0.1924

                    22                     23                     24
                     A                      A                      A
 Frequencies --   469.3633               482.1592               524.5980
 Red. masses --    17.6721                17.1635                 8.3795
 Frc consts  --     2.2938                 2.3509                 1.3587
 IR Inten    --    14.7902                45.9409                 5.1963

                    25                     26                     27
                     A                      A                      A
 Frequencies --   537.9517               540.8977               548.6493
 Red. masses --    17.2865                17.3265                 5.3569
 Frc consts  --     2.9474                 2.9867                 0.9501
 IR Inten    --     1.1350                 9.0774                13.5958

                    28                     29                     30
                     A                      A                      A
 Frequencies --   586.2032               591.1903               667.2409
 Red. masses --    18.2213                 7.6060                 6.9397
 Frc consts  --     3.6892                 1.5662                 1.8204
 IR Inten    --   137.1137                10.6633                11.2985

                    31                     32                     33
                     A                      A                      A
 Frequencies --   687.6505               728.9882               758.3907
 Red. masses --     4.7831                17.9929                 2.4527
 Frc consts  --     1.3326                 5.6337                 0.8311
 IR Inten    --     6.2526                 1.6193                37.1544

                    34                     35                     36
                     A                      A                      A
 Frequencies --   782.1745               815.3926               865.0672
 Red. masses --     6.8602                 1.7406                10.3262
 Frc consts  --     2.4728                 0.6818                 4.5529
 IR Inten    --     8.1329                21.9988                35.1730

                    37                     38                     39
                     A                      A                      A
 Frequencies --   924.1036               943.8024              1029.4570
 Red. masses --    15.1119                 1.3934                 1.4243
 Frc consts  --     7.6035                 0.7313                 0.8894
 IR Inten    --   244.3721                 4.3967                 2.1552

                    40                     41                     42
                     A                      A                      A
 Frequencies --  1044.2280              1061.5496              1070.3059
 Red. masses --     2.2431                 1.7682                 2.9068
 Frc consts  --     1.4411                 1.1740                 1.9620
 IR Inten    --    19.2453                 9.8823                31.1201

                    43                     44                     45
                     A                      A                      A
 Frequencies --  1086.8039              1116.9235              1159.7453
 Red. masses --     7.7237                12.4565                 9.9657
 Frc consts  --     5.3750                 9.1557                 7.8974
 IR Inten    --   114.7840               124.9683               151.6770

                    46                     47                     48
                     A                      A                      A
 Frequencies --  1160.9311              1175.0440              1180.8697
 Red. masses --     2.2840                12.8976                 2.2481
 Frc consts  --     1.8137                10.4922                 1.8470
 IR Inten    --     7.4523               279.3953                38.3166

                    49                     50                     51
                     A                      A                      A
 Frequencies --  1189.3462              1221.4587              1300.8284
 Red. masses --     1.1722                17.2736                 1.6291
 Frc consts  --     0.9769                15.1842                 1.6242
 IR Inten    --     7.4634               573.2575                16.7439

                    52                     53                     54
                     A                      A                      A
 Frequencies --  1376.3859              1383.7639              1457.6550
 Red. masses --     9.9902                 6.8416                 2.2395
 Frc consts  --    11.1508                 7.7184                 2.8036
 IR Inten    --   222.5004                22.5677                 3.8094

                    55                     56                     57
                     A                      A                      A
 Frequencies --  1503.8701              1598.1386              1608.9361
 Red. masses --     2.2620                 5.6356                 9.9855
 Frc consts  --     3.0141                 8.4805                15.2300
 IR Inten    --     7.0130                45.1000               200.6940

                    58                     59                     60
                     A                      A                      A
 Frequencies --  1644.7026              2323.9576              3031.1363
 Red. masses --     8.6537                13.9714                 1.1044
 Frc consts  --    13.7920                44.4577                 5.9784
 IR Inten    --    63.2410               145.7350               419.4038

                    61                     62                     63
                     A                      A                      A
 Frequencies --  3202.2727              3215.8908              3233.7004
 Red. masses --     1.0894                 1.0957                 1.0940
 Frc consts  --     6.5822                 6.6765                 6.7401
 IR Inten    --     0.3935                 1.6189                 9.7227

 - Thermochemistry -
 -------------------
 Temperature   298.150 Kelvin.  Pressure   1.00000 Atm.
 Atom     1 has atomic number  6 and mass  12.00000

 Molecular mass:   298.98238 amu.
 Principal axes and moments of inertia in atomic units:
                           1         2         3
     Eigenvalues --  2573.417419793.78774**********
           X            0.99988   0.01554   0.00274
           Y           -0.01550   0.99980  -0.01292
           Z           -0.00294   0.01288   0.99991
 This molecule is an asymmetric top.
 Rotational symmetry number  1.
 Warning -- assumption of classical behavior for rotation
           may cause significant error
 Rotational temperatures (Kelvin)      0.03366     0.00884     0.00769
 Rotational constants (GHZ):           0.70130     0.18427     0.16026
 Zero-point vibrational energy     334910.4 (Joules/Mol)
                                   80.04550 (Kcal/Mol)
 Warning -- explicit consideration of  29 degrees of freedom as
           vibrations may cause significant error
 Vibrational temperatures:     23.65    33.33    44.25    61.42    71.13
          (Kelvin)             85.44   162.44   172.21   191.20   258.34
                              265.50   279.52   292.58   368.83   400.07
                              453.02   473.81   529.44   561.64   620.46
                              638.37   675.31   693.72   754.78   773.99
                              778.23   789.38   843.41   850.59   960.01
                              989.37  1048.85  1091.15  1125.37  1173.17
                             1244.64  1329.58  1357.92  1481.16  1502.41
                             1527.33  1539.93  1563.67  1607.00  1668.61
                             1670.32  1690.62  1699.01  1711.20  1757.40
                             1871.60  1980.31  1990.93  2097.24  2163.73
                             2299.36  2314.90  2366.36  3343.65  4361.12
                             4607.35  4626.94  4652.57

 Zero-point correction=                           0.127561 (Hartree/Particle)
 Thermal correction to Energy=                    0.145565
 Thermal correction to Enthalpy=                  0.146509
 Thermal correction to Gibbs Free Energy=         0.077242
 Sum of electronic and zero-point Energies=          -1507.021917
 Sum of electronic and thermal Energies=             -1507.003913
 Sum of electronic and thermal Enthalpies=           -1507.002969
 Sum of electronic and thermal Free Energies=        -1507.072236

                     E (Thermal)             CV                S
                      KCal/Mol        Cal/Mol-Kelvin    Cal/Mol-Kelvin
 Total                   91.343             62.828            145.785
 Electronic               0.000              0.000              0.000
 Translational            0.889              2.981             42.983
 Rotational               0.889              2.981             34.006
 Vibrational             89.566             56.867             68.797
 Vibration     1          0.593              1.986              7.024
 Vibration     2          0.593              1.985              6.343
 Vibration     3          0.594              1.984              5.780
 Vibration     4          0.595              1.980              5.130
 Vibration     5          0.595              1.978              4.840
 Vibration     6          0.597              1.974              4.478
 Vibration     7          0.607              1.939              3.218
 Vibration     8          0.609              1.933              3.105
 Vibration     9          0.613              1.920              2.904
 Vibration    10          0.629              1.867              2.333
 Vibration    11          0.631              1.861              2.282
 Vibration    12          0.635              1.848              2.187
 Vibration    13          0.639              1.835              2.103
 Vibration    14          0.666              1.752              1.687
 Vibration    15          0.679              1.714              1.546
 Vibration    16          0.702              1.645              1.337
 Vibration    17          0.712              1.617              1.263
 Vibration    18          0.741              1.538              1.088
 Vibration    19          0.758              1.491              0.999
 Vibration    20          0.792              1.402              0.855
 Vibration    21          0.803              1.375              0.815
 Vibration    22          0.826              1.318              0.739
 Vibration    23          0.838              1.290              0.704
 Vibration    24          0.880              1.196              0.599
 Vibration    25          0.893              1.166              0.570
 Vibration    26          0.896              1.160              0.563
 Vibration    27          0.904              1.143              0.547
 Vibration    28          0.943              1.061              0.474
 Vibration    29          0.949              1.051              0.465

 Normal termination of Gaussian 09 at Sat Mar 26 06:37:33 2005.
