 Gaussian 09, Revision B.01,
 Gaussian 09:  EM64L-G09RevB.01 12-Aug-2010

 ----------------------------------------------------------------------
 #p Temperature=348.15 int=(grid=ultrafine) CPHF=(grid=fine) freq rb3ly
 p/aug-cc-pvdz
 ----------------------------------------------------------------------

 -------------------------------------
 p-CH3O-Ph-N2-OTf-RB3LYP-aug-cc-pVDZ--
 -------------------------------------
 Symbolic Z-matrix:
 Charge =  0 Multiplicity = 1

                         Standard orientation:
 ---------------------------------------------------------------------
 Center     Atomic      Atomic             Coordinates (Angstroms)
 Number     Number       Type             X           Y           Z
 ---------------------------------------------------------------------
      1          6           0        2.194430   -0.650350   -0.575491
      2          6           0        1.194510    0.300800   -0.691831
      3          6           0        1.431501    1.575280   -0.146031
      4          6           0        2.631141    1.924649    0.515959
      5          6           0        3.611200    0.962969    0.621729
      6          6           0        3.401380   -0.331931    0.082609
      7          1           0        2.017089   -1.642270   -0.980711
      8          1           0        0.227830    0.104871   -1.162611
      9          1           0        2.767211    2.920289    0.933869
     10          1           0        4.552291    1.173469    1.125729
     11          7           0        0.447041    2.526460   -0.242451
     12          7           0       -0.319448    3.329491   -0.326691
     13         16           0       -2.299330    0.470762    0.034269
     14          6           0       -2.430311   -1.421138    0.132339
     15          8           0       -1.300640    0.795731    1.118749
     16          8           0       -3.689780    0.948842    0.243489
     17          8           0       -1.720020    0.690161   -1.349711
     18          9           0       -1.212171   -1.990719   -0.084451
     19          9           0       -2.856851   -1.817278    1.342919
     20          9           0       -3.274991   -1.899388   -0.796351
     21          8           0        4.415979   -1.188831    0.253829
     22          6           0        4.290029   -2.537371   -0.230371
     23          1           0        5.229059   -3.026952    0.038479
     24          1           0        4.162689   -2.545911   -1.321141
     25          1           0        3.448469   -3.045561    0.258649
 ---------------------------------------------------------------------

 SCF Done:  E(RB3LYP) =  -1417.17540994     A.U. after   17 cycles

 The electronic state is 1-A.
 Alpha  occ. eigenvalues --  -89.09217 -24.73457 -24.73077 -24.73060 -19.25122
 Alpha  occ. eigenvalues --  -19.10948 -19.10739 -19.10432 -14.57471 -14.53518
 Alpha  occ. eigenvalues --  -10.42406 -10.33249 -10.32745 -10.29184 -10.28395
 Alpha  occ. eigenvalues --  -10.26907 -10.26077 -10.25611  -8.11797  -6.08133
 Alpha  occ. eigenvalues --   -6.08122  -6.08101  -1.30541  -1.22767  -1.22071
 Alpha  occ. eigenvalues --   -1.22041  -1.14425  -1.08556  -0.96915  -0.95765
 Alpha  occ. eigenvalues --   -0.95162  -0.89056  -0.83342  -0.79667  -0.72831
 Alpha  occ. eigenvalues --   -0.71382  -0.69690  -0.63893  -0.62188  -0.59720
 Alpha  occ. eigenvalues --   -0.59022  -0.58396  -0.58225  -0.57981  -0.55042
 Alpha  occ. eigenvalues --   -0.53353  -0.53034  -0.52825  -0.51981  -0.49865
 Alpha  occ. eigenvalues --   -0.47999  -0.47533  -0.46214  -0.46024  -0.45012
 Alpha  occ. eigenvalues --   -0.44041  -0.43562  -0.43187  -0.42930  -0.41990
 Alpha  occ. eigenvalues --   -0.41945  -0.40238  -0.39940  -0.39547  -0.33354
 Alpha  occ. eigenvalues --   -0.31526  -0.30840  -0.30364  -0.28228  -0.28052
 Alpha  occ. eigenvalues --   -0.27297  -0.24216
 Alpha virt. eigenvalues --   -0.14676  -0.12967  -0.08223  -0.03921  -0.03716
 Alpha virt. eigenvalues --   -0.02699  -0.01261  -0.00544   0.00277   0.00538
 Alpha virt. eigenvalues --    0.02009   0.02438   0.03589   0.03879   0.04455

 Mulliken atomic charges:
              1
     1  C    1.062684
     2  C    1.138168
     3  C    0.774396
     4  C    0.877636
     5  C    1.229527
     6  C    0.189586
     7  H   -1.217130
     8  H   -0.880380
     9  H   -0.844198
    10  H   -0.908040
    11  N    0.485051
    12  N   -0.737839
    13  S    2.275014
    14  C    1.075267
    15  O   -0.992987
    16  O   -0.912814
    17  O   -0.972398
    18  F   -0.520720
    19  F   -0.441895
    20  F   -0.428916
    21  O   -0.605221
    22  C    1.265973
    23  H   -0.533776
    24  H   -0.200310
    25  H   -0.176678
 Sum of Mulliken atomic charges =   0.00000

 Dipole moment (field-independent basis, Debye):
    X=             14.8404    Y=              0.4580    Z=             -0.9054  Tot=             14.8751
 Quadrupole moment (field-independent basis, Debye-Ang):
   XX=           -111.8259   YY=            -88.8396   ZZ=           -114.1969
   XY=              1.2730   XZ=              0.4247   YZ=              3.0139

  Exact polarizability: 197.715 -38.811 180.632  11.592   5.962 109.138
 Approx polarizability: 312.144 -90.260 303.559  28.862   8.873 183.382

                     1                      2                      3
                     A                      A                      A
 Frequencies --    18.4230                19.0458                36.2551
 Red. masses --     9.2909                10.9264                 7.6193
 Frc consts  --     0.0019                 0.0023                 0.0059
 IR Inten    --     0.3429                 1.7276                 1.0971

                     4                      5                      6
                     A                      A                      A
 Frequencies --    43.3244                49.0704                91.3237
 Red. masses --     6.4108                 9.0935                 5.2562
 Frc consts  --     0.0071                 0.0129                 0.0258
 IR Inten    --     3.0882                 2.4251                 2.1720

                     7                      8                      9
                     A                      A                      A
 Frequencies --   104.1539               117.8862               136.9604
 Red. masses --    11.0583                 8.9903                 9.0091
 Frc consts  --     0.0707                 0.0736                 0.0996
 IR Inten    --     9.3166                19.7480                 0.7142

                    10                     11                     12
                     A                      A                      A
 Frequencies --   144.3120               184.8453               187.1401
 Red. masses --     4.4901                16.9005                17.0311
 Frc consts  --     0.0551                 0.3402                 0.3514
 IR Inten    --     6.1203                 1.4422                 0.5264

                    13                     14                     15
                     A                      A                      A
 Frequencies --   218.9370               256.2164               274.5468
 Red. masses --     1.3317                 3.2138                 5.2277
 Frc consts  --     0.0376                 0.1243                 0.2322
 IR Inten    --     0.7546                 1.6057                 0.2247

                    16                     17                     18
                     A                      A                      A
 Frequencies --   274.9817               315.6805               324.2040
 Red. masses --     5.6438                17.4336                17.5176
 Frc consts  --     0.2514                 1.0236                 1.0848
 IR Inten    --     0.2497                 0.2725                 4.8009

                    19                     20                     21
                     A                      A                      A
 Frequencies --   381.8192               418.3221               469.7946
 Red. masses --     7.9985                 3.1365                17.6119
 Frc consts  --     0.6870                 0.3234                 2.2902
 IR Inten    --     4.8308                 1.2161                14.3483

                    22                     23                     24
                     A                      A                      A
 Frequencies --   482.5278               487.6836               501.4907
 Red. masses --    15.3519                 6.4122                 5.4423
 Frc consts  --     2.1060                 0.8985                 0.8064
 IR Inten    --    40.8598                 0.8359                14.6484

                    25                     26                     27
                     A                      A                      A
 Frequencies --   530.2200               536.6390               541.6970
 Red. masses --     3.9164                17.6434                15.0918
 Frc consts  --     0.6487                 2.9936                 2.6092
 IR Inten    --    20.8762                 2.4586                 8.8043

                    28                     29                     30
                     A                      A                      A
 Frequencies --   544.8954               587.6763               647.7373
 Red. masses --     5.2785                20.9267                 7.2044
 Frc consts  --     0.9234                 4.2582                 1.7809
 IR Inten    --     4.0322               122.4816                 5.5535

                    31                     32                     33
                     A                      A                      A
 Frequencies --   701.3628               722.2334               725.6790
 Red. masses --     5.4390                 3.0690                18.1126
 Frc consts  --     1.5764                 0.9432                 5.6198
 IR Inten    --    16.3149                 1.6196                 0.9182

                    34                     35                     36
                     A                      A                      A
 Frequencies --   815.7223               830.1199               862.1077
 Red. masses --     1.2872                 6.0343                 1.7166
 Frc consts  --     0.5047                 2.4500                 0.7517
 IR Inten    --     5.5039                11.7659                57.5875

                    37                     38                     39
                     A                      A                      A
 Frequencies --   933.0309               975.4751              1009.9216
 Red. masses --    15.8809                 1.3484                 2.7448
 Frc consts  --     8.1455                 0.7559                 1.6495
 IR Inten    --   152.1114                 0.2722                 6.3274

                    40                     41                     42
                     A                      A                      A
 Frequencies --  1029.4912              1033.5018              1102.1717
 Red. masses --     4.8683                 1.3844                 8.4428
 Frc consts  --     3.0400                 0.8712                 6.0427
 IR Inten    --    82.4649                15.0324                80.4831

                    43                     44                     45
                     A                      A                      A
 Frequencies --  1106.4116              1137.7267              1152.8015
 Red. masses --    14.0386                 1.3391                 2.4276
 Frc consts  --    10.1253                 1.0212                 1.9008
 IR Inten    --   126.6281                27.4467               345.7729

                    46                     47                     48
                     A                      A                      A
 Frequencies --  1155.1422              1164.5251              1168.4322
 Red. masses --     1.2718                13.6477                12.7888
 Frc consts  --     0.9999                10.9045                10.2870
 IR Inten    --     0.8740               134.7462               300.1694

                    49                     50                     51
                     A                      A                      A
 Frequencies --  1195.0339              1208.0066              1216.0376
 Red. masses --     1.3728                 2.0998                 4.1787
 Frc consts  --     1.1551                 1.8054                 3.6407
 IR Inten    --     2.3496               190.4022               271.7395

                    52                     53                     54
                     A                      A                      A
 Frequencies --  1312.5280              1323.7948              1376.7005
 Red. masses --     3.0126                 1.3623                 7.0487
 Frc consts  --     3.0578                 1.4066                 7.8712
 IR Inten    --   315.9922                21.6162                27.9136

                    55                     56                     57
                     A                      A                      A
 Frequencies --  1448.9314              1471.8537              1476.6125
 Red. masses --     1.1972                 1.3986                 1.0448
 Frc consts  --     1.4808                 1.7851                 1.3422
 IR Inten    --    22.6632                23.9543                11.4530

                    58                     59                     60
                     A                      A                      A
 Frequencies --  1483.3292              1511.9635              1584.9617
 Red. masses --     2.0908                 2.4525                 7.1985
 Frc consts  --     2.7105                 3.3033                10.6544
 IR Inten    --     4.1432                96.2503                24.0279

                    61                     62                     63
                     A                      A                      A
 Frequencies --  1629.8993              2343.7088              3037.5243
 Red. masses --     5.6586                13.9292                 1.0328
 Frc consts  --     8.8569                45.0798                 5.6144
 IR Inten    --   466.5603               385.3625                28.6086

                    64                     65                     66
                     A                      A                      A
 Frequencies --  3119.2232              3137.1868              3176.0068
 Red. masses --     1.1079                 1.0994                 1.1029
 Frc consts  --     6.3512                 6.3751                 6.5544
 IR Inten    --    13.4385               229.3104                 8.6123

                    67                     68                     69
                     A                      A                      A
 Frequencies --  3209.1750              3222.5478              3235.3916
 Red. masses --     1.0896                 1.0977                 1.0920
 Frc consts  --     6.6118                 6.7163                 6.7346
 IR Inten    --     0.0671                 0.7907                 2.8134

 - Thermochemistry -
 -------------------
 Temperature   348.150 Kelvin.  Pressure   1.00000 Atm.
 Atom     1 has atomic number  6 and mass  12.00000

 Molecular mass:   284.00786 amu.
 Principal axes and moments of inertia in atomic units:
                           1         2         3
     Eigenvalues --  3102.815617665.392359876.46001
           X            0.99950  -0.03174   0.00077
           Y            0.03173   0.99940   0.01397
           Z           -0.00121  -0.01394   0.99990
 This molecule is an asymmetric top.
 Rotational symmetry number  1.
 Warning -- assumption of classical behavior for rotation
           may cause significant error
 Rotational temperatures (Kelvin)      0.02791     0.01130     0.00877
 Rotational constants (GHZ):           0.58165     0.23544     0.18273
 Zero-point vibrational energy     414351.0 (Joules/Mol)
                                   99.03227 (Kcal/Mol)
 Warning -- explicit consideration of  32 degrees of freedom as
           vibrations may cause significant error
 Vibrational temperatures:     26.51    27.40    52.16    62.33    70.60
          (Kelvin)            131.39   149.85   169.61   197.06   207.63
                              265.95   269.25   315.00   368.64   395.01
                              395.64   454.19   466.46   549.35   601.87
                              675.93   694.25   701.67   721.53   762.87
                              772.10   779.38   783.98   845.53   931.95
                             1009.10  1039.13  1044.09  1173.64  1194.36
                             1240.38  1342.42  1403.49  1453.05  1481.21
                             1486.98  1585.78  1591.88  1636.93  1658.62
                             1661.99  1675.49  1681.11  1719.39  1738.05
                             1749.60  1888.43  1904.64  1980.76  2084.69
                             2117.67  2124.51  2134.18  2175.38  2280.40
                             2345.06  3372.07  4370.31  4487.86  4513.71
                             4569.56  4617.28  4636.52  4655.00

 Zero-point correction=                           0.157818 (Hartree/Particle)
 Thermal correction to Energy=                    0.181353
 Thermal correction to Enthalpy=                  0.182456
 Thermal correction to Gibbs Free Energy=         0.095722
 Sum of electronic and zero-point Energies=          -1417.017592
 Sum of electronic and thermal Energies=             -1416.994057
 Sum of electronic and thermal Enthalpies=           -1416.992954
 Sum of electronic and thermal Free Energies=        -1417.079688

                     E (Thermal)             CV                S
                      KCal/Mol        Cal/Mol-Kelvin    Cal/Mol-Kelvin
 Total                  113.801             70.633            156.330
 Electronic               0.000              0.000              0.000
 Translational            1.038              2.981             43.600
 Rotational               1.038              2.981             34.280
 Vibrational            111.725             64.672             78.450
 Vibration     1          0.692              1.986              7.105
 Vibration     2          0.692              1.986              7.039
 Vibration     3          0.693              1.983              5.761
 Vibration     4          0.694              1.982              5.408
 Vibration     5          0.694              1.980              5.161
 Vibration     6          0.700              1.964              3.935
 Vibration     7          0.702              1.957              3.678
 Vibration     8          0.705              1.948              3.436
 Vibration     9          0.710              1.935              3.145
 Vibration    10          0.712              1.929              3.044
 Vibration    11          0.725              1.893              2.570
 Vibration    12          0.726              1.891              2.547
 Vibration    13          0.738              1.857              2.252
 Vibration    14          0.755              1.812              1.964
 Vibration    15          0.765              1.787              1.840
 Vibration    16          0.765              1.786              1.837
 Vibration    17          0.787              1.728              1.594
 Vibration    18          0.792              1.715              1.548
 Vibration    19          0.830              1.622              1.275
 Vibration    20          0.856              1.558              1.130
 Vibration    21          0.897              1.465              0.954
 Vibration    22          0.907              1.442              0.915
 Vibration    23          0.912              1.432              0.900
 Vibration    24          0.923              1.406              0.860
 Vibration    25          0.949              1.352              0.784
 Vibration    26          0.955              1.340              0.767
 Vibration    27          0.959              1.330              0.755
 Vibration    28          0.962              1.324              0.747
 Vibration    29          1.003              1.243              0.650
 Vibration    30          1.063              1.129              0.534
 Vibration    31          1.120              1.030              0.449
 Vibration    32          1.142              0.993              0.419

 Optimization completed.
    -- Stationary point found.
 Normal termination of Gaussian 09 at Fri May  5 16:37:22 2017.
