 Gaussian 09, Revision B.01,
 Gaussian 09:  EM64L-G09RevB.01 12-Aug-2010

 ----------------------------------------------------------------------
 #p opt=(verytight,maxcycles=1000) int=(grid=ultrafine) CPHF=(grid=fine
 ) freq rb3lyp/aug-cc-pvdz
 ----------------------------------------------------------------------

 --------------------------------
 p-CH3O-Ph-OTf-RB3LYP-aug-cc-pVDZ
 --------------------------------
 Symbolic Z-matrix:
 Charge =  0 Multiplicity = 1

 SCF Done:  E(RB3LYP) =  -1307.62259904     A.U. after   16 cycles
 SCF Done:  E(RB3LYP) =  -1307.67095764     A.U. after   14 cycles
 SCF Done:  E(RB3LYP) =  -1307.69283373     A.U. after   15 cycles
 SCF Done:  E(RB3LYP) =  -1307.70003194     A.U. after   15 cycles
 SCF Done:  E(RB3LYP) =  -1307.70068037     A.U. after   11 cycles
 SCF Done:  E(RB3LYP) =  -1307.70075757     A.U. after   11 cycles
 SCF Done:  E(RB3LYP) =  -1307.70076362     A.U. after    9 cycles
 SCF Done:  E(RB3LYP) =  -1307.70076427     A.U. after    8 cycles
 SCF Done:  E(RB3LYP) =  -1307.70076435     A.U. after    8 cycles
 SCF Done:  E(RB3LYP) =  -1307.70076436     A.U. after    8 cycles
 SCF Done:  E(RB3LYP) =  -1307.70664741     A.U. after    8 cycles
 SCF Done:  E(RB3LYP) =  -1307.70664741     A.U. after    5 cycles
 SCF Done:  E(RB3LYP) =  -1307.70664742     A.U. after    6 cycles
 SCF Done:  E(RB3LYP) =  -1307.70664741     A.U. after    5 cycles
 SCF Done:  E(RB3LYP) =  -1307.70664741     A.U. after    4 cycles
 SCF Done:  E(RB3LYP) =  -1307.70664741     A.U. after    5 cycles
 SCF Done:  E(RB3LYP) =  -1307.70664741     A.U. after    3 cycles
 SCF Done:  E(RB3LYP) =  -1307.70664741     A.U. after    4 cycles
 SCF Done:  E(RB3LYP) =  -1307.70664741     A.U. after    4 cycles
 Optimization completed.
    -- Stationary point found.
 Normal termination of Gaussian 09 at Sat Apr 22 01:31:26 2017.

 ----------------------------------------------------------------------
 #P Geom=AllCheck Guess=TCheck SCRF=Check GenChk RB3LYP/Aug-CC-pVDZ Fre
 q
 ----------------------------------------------------------------------

 p-CH3O-Ph-OTf-RB3LYP-aug-cc-pVDZ
 --------------------------------
 Redundant internal coordinates taken from checkpoint file:
 /home/ubuntu/g09/Gau-26124.chk
 Charge =  0 Multiplicity = 1

                         Standard orientation:
 ---------------------------------------------------------------------
 Center     Atomic      Atomic             Coordinates (Angstroms)
 Number     Number       Type             X           Y           Z
 ---------------------------------------------------------------------
      1          6           0        2.851346   -0.985151   -0.236780
      2          6           0        1.463322   -1.041949   -0.405754
      3          6           0        0.729312    0.137811   -0.430492
      4          6           0        1.343933    1.383867   -0.286339
      5          6           0        2.723110    1.441095   -0.119359
      6          6           0        3.484072    0.258879   -0.092575
      7          1           0        3.418001   -1.912348   -0.220901
      8          1           0        0.956550   -1.998523   -0.519038
      9          1           0        0.743503    2.291465   -0.307926
     10          1           0        3.233659    2.396336   -0.007127
     11          8           0       -0.662314    0.081525   -0.681780
     12         16           0       -1.651326   -0.049951    0.660537
     13          8           0       -1.622906    1.192554    1.452377
     14          8           0       -1.495033   -1.371803    1.293363
     15          6           0       -3.250437   -0.066079   -0.372893
     16          9           0       -3.359207    1.066617   -1.067395
     17          9           0       -3.250610   -1.110522   -1.201540
     18          9           0       -4.271595   -0.169813    0.483045
     19          8           0        4.826494    0.426414    0.075030
     20          6           0        5.653049   -0.733865    0.118958
     21          1           0        5.596182   -1.298784   -0.823996
     22          1           0        6.673059   -0.365404    0.262449
     23          1           0        5.376799   -1.387237    0.960441
 ---------------------------------------------------------------------

 SCF Done:  E(RB3LYP) =  -1307.70664741     A.U. after    1 cycles

 The electronic state is 1-A.
 Alpha  occ. eigenvalues --  -89.16592 -24.78965 -24.78960 -24.78937 -19.23303
 Alpha  occ. eigenvalues --  -19.19832 -19.19060 -19.19055 -10.49632 -10.27142
 Alpha  occ. eigenvalues --  -10.26857 -10.25658 -10.21800 -10.21681 -10.21291
 Alpha  occ. eigenvalues --  -10.20948  -8.19473  -6.15887  -6.15722  -6.15668
 Alpha  occ. eigenvalues --   -1.36883  -1.28281  -1.28220  -1.16792  -1.08972
 Alpha  occ. eigenvalues --   -1.07775  -1.04556  -0.87986  -0.79971  -0.78016
 Alpha  occ. eigenvalues --   -0.76803  -0.72590  -0.69436  -0.64768  -0.64412
 Alpha  occ. eigenvalues --   -0.64350  -0.62875  -0.60042  -0.56274  -0.54965
 Alpha  occ. eigenvalues --   -0.52396  -0.51618  -0.51459  -0.50706  -0.49778
 Alpha  occ. eigenvalues --   -0.48758  -0.48163  -0.47881  -0.47445  -0.46790
 Alpha  occ. eigenvalues --   -0.45771  -0.45248  -0.44312  -0.42209  -0.40547
 Alpha  occ. eigenvalues --   -0.40075  -0.38423  -0.37782  -0.35883  -0.35269
 Alpha  occ. eigenvalues --   -0.35161  -0.33946  -0.32741  -0.28128  -0.24558
 Alpha virt. eigenvalues --   -0.04242  -0.03786  -0.01895  -0.01344  -0.00741
 Alpha virt. eigenvalues --    0.00185   0.00323   0.01251   0.01749   0.01781
 Alpha virt. eigenvalues --    0.02551   0.02829   0.03681   0.04096   0.05464

 Mulliken atomic charges:
              1
     1  C    1.564541
     2  C    0.686682
     3  C   -0.223885
     4  C    0.990937
     5  C    1.469135
     6  C    0.238519
     7  H   -1.201849
     8  H   -0.839319
     9  H   -0.846694
    10  H   -0.904387
    11  O   -0.944965
    12  S    2.234619
    13  O   -0.868972
    14  O   -0.871874
    15  C    1.123670
    16  F   -0.425160
    17  F   -0.426651
    18  F   -0.394269
    19  O   -0.647072
    20  C    1.231278
    21  H   -0.196139
    22  H   -0.553030
    23  H   -0.195114
 Sum of Mulliken atomic charges =   0.00000

 Dipole moment (field-independent basis, Debye):
    X=              3.3763    Y=             -0.9514    Z=             -1.7355  Tot=              3.9136
 Quadrupole moment (field-independent basis, Debye-Ang):
   XX=            -81.5257   YY=            -95.5903   ZZ=           -103.7673
   XY=             -6.6565   XZ=              3.2856   YZ=              0.2142

  Exact polarizability: 197.287  -3.856 130.651   1.930   1.258  97.291
 Approx polarizability: 253.068  -1.709 233.172   6.909   3.985 157.802

                     1                      2                      3
                     A                      A                      A
 Frequencies --    12.3674                31.8490                44.4864
 Red. masses --     6.8970                 6.3398                 7.3298
 Frc consts  --     0.0006                 0.0038                 0.0085
 IR Inten    --     0.6176                 0.3873                 0.6175

                     4                      5                      6
                     A                      A                      A
 Frequencies --    53.5372                91.8400               122.6894
 Red. masses --    10.5614                 4.3171                 7.5226
 Frc consts  --     0.0178                 0.0215                 0.0667
 IR Inten    --     0.1081                 1.3572                 1.4948

                     7                      8                      9
                     A                      A                      A
 Frequencies --   168.0057               169.8223               213.6203
 Red. masses --     5.2715                12.4000                 4.9046
 Frc consts  --     0.0877                 0.2107                 0.1319
 IR Inten    --     3.6364                 2.0749                 0.5754

                    10                     11                     12
                     A                      A                      A
 Frequencies --   244.9715               250.0522               282.7247
 Red. masses --     8.7105                 1.2689                 6.2248
 Frc consts  --     0.3080                 0.0467                 0.2932
 IR Inten    --     4.5615                 1.3477                 0.8634

                    13                     14                     15
                     A                      A                      A
 Frequencies --   291.3191               343.0952               355.8809
 Red. masses --    13.8573                 6.2490                 8.4181
 Frc consts  --     0.6929                 0.4334                 0.6282
 IR Inten    --     1.0319                 1.0557                 0.4888

                    16                     17                     18
                     A                      A                      A
 Frequencies --   426.9713               433.3608               461.7143
 Red. masses --     5.7175                 3.5137                10.5288
 Frc consts  --     0.6141                 0.3888                 1.3224
 IR Inten    --     6.4472                 3.0531                21.6220

                    19                     20                     21
                     A                      A                      A
 Frequencies --   463.0483               514.2308               525.8720
 Red. masses --     9.3656                 5.4278                 3.3543
 Frc consts  --     1.1831                 0.8457                 0.5465
 IR Inten    --     9.6246                27.5022                52.5494

                    22                     23                     24
                     A                      A                      A
 Frequencies --   538.5556               540.8230               611.1988
 Red. masses --    16.9395                 8.6976                 7.0284
 Frc consts  --     2.8948                 1.4989                 1.5469
 IR Inten    --     1.0422                15.8756                86.0681

                    25                     26                     27
                     A                      A                      A
 Frequencies --   643.9702               658.5686               728.6442
 Red. masses --     7.0312                 7.8457                 3.9379
 Frc consts  --     1.7179                 2.0049                 1.2318
 IR Inten    --     4.5229                66.5115                 4.9232

                    28                     29                     30
                     A                      A                      A
 Frequencies --   741.7601               774.4983               805.8209
 Red. masses --    11.6203                 7.7538                 1.2580
 Frc consts  --     3.7670                 2.7404                 0.4813
 IR Inten    --    42.8970               182.7084                 2.5985

                    31                     32                     33
                     A                      A                      A
 Frequencies --   846.9048               848.9048               940.4867
 Red. masses --     3.3866                 2.4808                 1.3727
 Frc consts  --     1.4312                 1.0533                 0.7154
 IR Inten    --    80.9478                51.1315                 0.0886

                    34                     35                     36
                     A                      A                      A
 Frequencies --   966.3333              1015.7007              1057.1039
 Red. masses --     1.3502                 2.7315                 6.7361
 Frc consts  --     0.7428                 1.6603                 4.4350
 IR Inten    --     0.3572                 7.7279                86.2019

                    37                     38                     39
                     A                      A                      A
 Frequencies --  1063.4971              1119.4525              1145.5765
 Red. masses --    15.1187                 1.2442                 4.2907
 Frc consts  --    10.0748                 0.9187                 3.3176
 IR Inten    --   186.7514                15.0971               257.8737

                    40                     41                     42
                     A                      A                      A
 Frequencies --  1157.9863              1167.8031              1193.4317
 Red. masses --     1.2747                 1.7321                 2.6253
 Frc consts  --     1.0070                 1.3918                 2.2030
 IR Inten    --     0.9197                63.8147                36.2575

                    43                     44                     45
                     A                      A                      A
 Frequencies --  1194.3141              1200.0761              1206.1170
 Red. masses --     1.4086                 8.2631                13.3055
 Frc consts  --     1.1838                 7.0115                11.4041
 IR Inten    --    10.5201               255.7229               152.8813

                    46                     47                     48
                     A                      A                      A
 Frequencies --  1278.5336              1292.9222              1308.1354
 Red. masses --     4.9956                11.6380                 1.3586
 Frc consts  --     4.8113                11.4623                 1.3698
 IR Inten    --   199.3472               207.5569                 7.5242

                    49                     50                     51
                     A                      A                      A
 Frequencies --  1355.0500              1444.2579              1450.2474
 Red. masses --     9.5180                 3.1344                 1.1970
 Frc consts  --    10.2969                 3.8521                 1.4833
 IR Inten    --    19.8560                 0.6392                17.4182

                    52                     53                     54
                     A                      A                      A
 Frequencies --  1473.2426              1479.2588              1523.4467
 Red. masses --     1.0452                 1.0768                 2.5544
 Frc consts  --     1.3366                 1.3883                 3.4929
 IR Inten    --     8.6944                27.9081               234.4175

                    55                     56                     57
                     A                      A                      A
 Frequencies --  1627.8668              1645.9493              3012.0150
 Red. masses --     7.1586                 6.4183                 1.0345
 Frc consts  --    11.1768                10.2448                 5.5296
 IR Inten    --    17.4595                38.5952                51.4890

                    58                     59                     60
                     A                      A                      A
 Frequencies --  3080.3394              3153.3912              3200.9414
 Red. masses --     1.1063                 1.0999                 1.0889
 Frc consts  --     6.1849                 6.4443                 6.5736
 IR Inten    --    30.8810                17.8255                 3.0360

                    61                     62                     63
                     A                      A                      A
 Frequencies --  3208.4941              3216.2653              3225.5176
 Red. masses --     1.0899                 1.0961                 1.0937
 Frc consts  --     6.6109                 6.6805                 6.7044
 IR Inten    --     2.6924                 0.3652                 2.6666

 - Thermochemistry -
 -------------------
 Temperature   298.150 Kelvin.  Pressure   1.00000 Atm.
 Atom     1 has atomic number  6 and mass  12.00000

 Molecular mass:   256.00172 amu.
 Principal axes and moments of inertia in atomic units:
                           1         2         3
     Eigenvalues --  1248.438568829.464599038.51780
           X            0.99997  -0.00803  -0.00210
           Y            0.00804   0.99996   0.00490
           Z            0.00207  -0.00492   0.99999
 This molecule is an asymmetric top.
 Rotational symmetry number  1.
 Warning -- assumption of classical behavior for rotation
           may cause significant error
 Rotational temperatures (Kelvin)      0.06938     0.00981     0.00958
 Rotational constants (GHZ):           1.44560     0.20440     0.19967
 Zero-point vibrational energy     392643.5 (Joules/Mol)
                                   93.84404 (Kcal/Mol)
 Warning -- explicit consideration of  24 degrees of freedom as
           vibrations may cause significant error
 Vibrational temperatures:     17.79    45.82    64.01    77.03   132.14
          (Kelvin)            176.52   241.72   244.34   307.35   352.46
                              359.77   406.78   419.14   493.64   512.03
                              614.32   623.51   664.30   666.22   739.86
                              756.61   774.86   778.12   879.38   926.53
                              947.53  1048.36  1067.23  1114.33  1159.40
                             1218.51  1221.38  1353.15  1390.34  1461.36
                             1520.93  1530.13  1610.64  1648.23  1666.08
                             1680.21  1717.08  1718.35  1726.64  1735.33
                             1839.52  1860.22  1882.11  1949.61  2077.96
                             2086.58  2119.66  2128.32  2191.90  2342.13
                             2368.15  4333.61  4431.92  4537.02  4605.43
                             4616.30  4627.48  4640.79

 Zero-point correction=                           0.149550 (Hartree/Particle)
 Thermal correction to Energy=                    0.164832
 Thermal correction to Enthalpy=                  0.165776
 Thermal correction to Gibbs Free Energy=         0.104007
 Sum of electronic and zero-point Energies=          -1307.557097
 Sum of electronic and thermal Energies=             -1307.541816
 Sum of electronic and thermal Enthalpies=           -1307.540872
 Sum of electronic and thermal Free Energies=        -1307.602640

                     E (Thermal)             CV                S
                      KCal/Mol        Cal/Mol-Kelvin    Cal/Mol-Kelvin
 Total                  103.433             55.247            130.004
 Electronic               0.000              0.000              0.000
 Translational            0.889              2.981             42.520
 Rotational               0.889              2.981             32.966
 Vibrational            101.656             49.285             54.518
 Vibration     1          0.593              1.987              7.589
 Vibration     2          0.594              1.983              5.711
 Vibration     3          0.595              1.980              5.049
 Vibration     4          0.596              1.976              4.682
 Vibration     5          0.602              1.955              3.620
 Vibration     6          0.610              1.930              3.058
 Vibration     7          0.625              1.882              2.458
 Vibration     8          0.625              1.880              2.437
 Vibration     9          0.644              1.820              2.013
 Vibration    10          0.660              1.771              1.766
 Vibration    11          0.663              1.763              1.730
 Vibration    12          0.682              1.706              1.517
 Vibration    13          0.687              1.690              1.466
 Vibration    14          0.722              1.589              1.198
 Vibration    15          0.731              1.563              1.140
 Vibration    16          0.789              1.412              0.869
 Vibration    17          0.794              1.398              0.848
 Vibration    18          0.819              1.335              0.761
 Vibration    19          0.821              1.332              0.757
 Vibration    20          0.869              1.218              0.623
 Vibration    21          0.881              1.193              0.596
 Vibration    22          0.894              1.165              0.568
 Vibration    23          0.896              1.160              0.564
 Vibration    24          0.970              1.008              0.431

 Normal termination of Gaussian 09 at Sat Apr 22 02:42:20 2017.
