 Gaussian 09, Revision B.01,
 Gaussian 09:  EM64L-G09RevB.01 12-Aug-2010

 ----------------------------------------------------------------------
 #p opt=(verytight,maxcycles=1000) int=(grid=ultrafine) CPHF=(grid=fine
 ) freq rb3lyp/aug-cc-pvdz
 ----------------------------------------------------------------------

 ----------------------------------
 p-NO2-Ph-N2-BF4-RB3LYP-aug-cc-pVDZ
 ----------------------------------
 Symbolic Z-matrix:
 Charge =  0 Multiplicity = 1

 SCF Done:  E(RB3LYP) =  -970.127823621     A.U. after   17 cycles
 SCF Done:  E(RB3LYP) =  -970.131401530     A.U. after   14 cycles
 SCF Done:  E(RB3LYP) =  -970.130906417     A.U. after   14 cycles
 SCF Done:  E(RB3LYP) =  -970.131642448     A.U. after   13 cycles
 SCF Done:  E(RB3LYP) =  -970.132713361     A.U. after   16 cycles
 SCF Done:  E(RB3LYP) =  -970.132960786     A.U. after   13 cycles
 SCF Done:  E(RB3LYP) =  -970.133053547     A.U. after   13 cycles
 SCF Done:  E(RB3LYP) =  -970.133089050     A.U. after   12 cycles
 SCF Done:  E(RB3LYP) =  -970.133144155     A.U. after   13 cycles
 SCF Done:  E(RB3LYP) =  -970.133245657     A.U. after   13 cycles
 SCF Done:  E(RB3LYP) =  -970.133853626     A.U. after    4 cycles
 SCF Done:  E(RB3LYP) =  -970.133853626     A.U. after    4 cycles
 SCF Done:  E(RB3LYP) =  -970.133853626     A.U. after    4 cycles
 SCF Done:  E(RB3LYP) =  -970.133853626     A.U. after    5 cycles
 SCF Done:  E(RB3LYP) =  -970.133853626     A.U. after    4 cycles
 SCF Done:  E(RB3LYP) =  -970.133853626     A.U. after    4 cycles
 SCF Done:  E(RB3LYP) =  -970.133853626     A.U. after    4 cycles
 SCF Done:  E(RB3LYP) =  -970.133853626     A.U. after    4 cycles
 SCF Done:  E(RB3LYP) =  -970.133853626     A.U. after    4 cycles
 Optimization completed.
    -- Stationary point found.
 Normal termination of Gaussian 09 at Wed Feb 22 16:04:49 2017.

 ----------------------------------------------------------------------
 #P Geom=AllCheck Guess=TCheck SCRF=Check GenChk RB3LYP/Aug-CC-pVDZ Fre
 q
 ----------------------------------------------------------------------

 p-NO2-Ph-N2-BF4-RB3LYP-aug-cc-pVDZ
 ----------------------------------
 Redundant internal coordinates taken from checkpoint file:
 /home/ubuntu/g09/Gau-4233.chk
 Charge =  0 Multiplicity = 1

                         Standard orientation:
 ---------------------------------------------------------------------
 Center     Atomic      Atomic             Coordinates (Angstroms)
 Number     Number       Type             X           Y           Z
 ---------------------------------------------------------------------
      1          6           0       -1.541325   -0.887037   -0.427184
      2          6           0       -0.246993   -0.378241   -0.521974
      3          6           0       -0.076927    0.976712   -0.210892
      4          6           0       -1.110409    1.839146    0.194607
      5          6           0       -2.389300    1.305537    0.291498
      6          6           0       -2.575719   -0.043316   -0.023890
      7          1           0       -1.747592   -1.930049   -0.653295
      8          1           0        0.618075   -0.974624   -0.810916
      9          1           0       -0.912484    2.883109    0.428855
     10          1           0       -3.234646    1.912560    0.604236
     11          7           0       -3.953240   -0.602786    0.077290
     12          8           0       -4.101003   -1.780927   -0.216613
     13          8           0       -4.838813    0.159561    0.445656
     14          7           0        1.196380    1.549838   -0.314577
     15          7           0        2.152395    2.105723   -0.408282
     16          5           0        3.180822   -0.693508    0.193318
     17          9           0        2.560809   -0.828747   -1.106266
     18          9           0        3.894259   -1.823739    0.526850
     19          9           0        3.974084    0.479117    0.163095
     20          9           0        2.100443   -0.459825    1.120564
 ---------------------------------------------------------------------

 SCF Done:  E(RB3LYP) =  -970.133853626     A.U. after    1 cycles

 The electronic state is 1-A.
 Alpha  occ. eigenvalues --  -24.64803 -24.64664 -24.64205 -24.63080 -19.23985
 Alpha  occ. eigenvalues --  -19.23951 -14.62765 -14.59712 -14.56916 -10.36524
 Alpha  occ. eigenvalues --  -10.33176 -10.30978 -10.29361 -10.29358 -10.28811
 Alpha  occ. eigenvalues --   -6.84711  -1.29114  -1.25606  -1.17806  -1.12628
 Alpha  occ. eigenvalues --   -1.12522  -1.12300  -1.11992  -0.99720  -0.93299
 Alpha  occ. eigenvalues --   -0.85863  -0.83725  -0.72776  -0.72292  -0.65795
 Alpha  occ. eigenvalues --   -0.62164  -0.61001  -0.60545  -0.59423  -0.57456
 Alpha  occ. eigenvalues --   -0.57047  -0.54466  -0.53983  -0.53528  -0.52307
 Alpha  occ. eigenvalues --   -0.50374  -0.47836  -0.47387  -0.47158  -0.46855
 Alpha  occ. eigenvalues --   -0.45009  -0.39213  -0.39061  -0.37351  -0.37275
 Alpha  occ. eigenvalues --   -0.37018  -0.36941  -0.36450  -0.36432  -0.35466
 Alpha  occ. eigenvalues --   -0.35419  -0.33979  -0.33595  -0.33502
 Alpha virt. eigenvalues --   -0.18771  -0.14891  -0.12933  -0.10731  -0.05582
 Alpha virt. eigenvalues --   -0.04722  -0.01817  -0.01206  -0.00257   0.01023
 Alpha virt. eigenvalues --    0.02039   0.02324   0.03710   0.04331   0.04428

 Mulliken atomic charges:
              1
     1  C    0.700128
     2  C    1.136359
     3  C    0.693954
     4  C    0.711130
     5  C    1.142546
     6  C    0.608280
     7  H   -0.820610
     8  H   -0.870460
     9  H   -0.821799
    10  H   -0.836229
    11  N    0.726096
    12  O   -0.637267
    13  O   -0.655368
    14  N    0.444204
    15  N   -0.656026
    16  B    1.498387
    17  F   -0.609521
    18  F   -0.530620
    19  F   -0.564793
    20  F   -0.658390
 Sum of Mulliken atomic charges =   0.00000

 Dipole moment (field-independent basis, Debye):
    X=             -8.0242    Y=              7.0825    Z=             -1.6378  Tot=             10.8274
 Quadrupole moment (field-independent basis, Debye-Ang):
   XX=           -135.0905   YY=            -79.5078   ZZ=            -89.8721
   XY=              4.6620   XZ=             -2.7016   YZ=              1.6014

  Exact polarizability: 186.447  14.298 126.187  -8.438   8.022  74.458
 Approx polarizability: 277.930  25.470 232.753 -21.124  23.859 117.943

                     1                      2                      3
                     A                      A                      A
 Frequencies --    24.8381                38.2929                50.1596
 Red. masses --     9.3143                16.5575                 8.2664
 Frc consts  --     0.0034                 0.0143                 0.0123
 IR Inten    --     3.7810                 1.0164                 2.0106

                     4                      5                      6
                     A                      A                      A
 Frequencies --    67.8367                68.7190               105.8236
 Red. masses --     8.3576                16.4196                 9.5404
 Frc consts  --     0.0227                 0.0457                 0.0629
 IR Inten    --     4.8822                 1.2664                 4.1043

                     7                      8                      9
                     A                      A                      A
 Frequencies --   113.6534               130.7635               196.0698
 Red. masses --    14.7465                11.5021                12.4757
 Frc consts  --     0.1122                 0.1159                 0.2826
 IR Inten    --     3.4216                36.5159                13.0971

                    10                     11                     12
                     A                      A                      A
 Frequencies --   230.9780               262.6993               326.4464
 Red. masses --     8.5482                 7.4670                18.9230
 Frc consts  --     0.2687                 0.3036                 1.1881
 IR Inten    --     0.7546                 3.7462                 0.5140

                    13                     14                     15
                     A                      A                      A
 Frequencies --   332.3506               340.4665               410.4289
 Red. masses --    13.3401                18.6007                 3.1137
 Frc consts  --     0.8682                 1.2704                 0.3090
 IR Inten    --    11.0912                 2.3812                 0.3907

                    16                     17                     18
                     A                      A                      A
 Frequencies --   430.6067               477.7265               481.0848
 Red. masses --     5.1737                18.0676                17.4954
 Frc consts  --     0.5652                 2.4295                 2.3857
 IR Inten    --     0.0766                 2.1207                 3.1006

                    19                     20                     21
                     A                      A                      A
 Frequencies --   491.0909               495.8683               537.0378
 Red. masses --    14.3501                12.9602                 4.9704
 Frc consts  --     2.0391                 1.8776                 0.8446
 IR Inten    --    12.9661                 6.5892                10.5156

                    22                     23                     24
                     A                      A                      A
 Frequencies --   549.8945               570.5150               643.2522
 Red. masses --     6.0841                 7.9792                 7.3824
 Frc consts  --     1.0839                 1.5302                 1.7997
 IR Inten    --     1.9971                 0.8109                 5.9346

                    25                     26                     27
                     A                      A                      A
 Frequencies --   678.7779               722.2011               764.2157
 Red. masses --     4.3159                18.7115                 3.4769
 Frc consts  --     1.1716                 5.7501                 1.1964
 IR Inten    --    10.5752                13.2867                22.9949

                    28                     29                     30
                     A                      A                      A
 Frequencies --   772.5766               836.1276               864.7296
 Red. masses --     7.2632                 1.3586                10.2008
 Frc consts  --     2.5542                 0.5596                 4.4941
 IR Inten    --    26.6286                 6.2692                35.1914

                    31                     32                     33
                     A                      A                      A
 Frequencies --   901.4313               937.9651               990.4198
 Red. masses --     1.6561                 8.9070                 1.3815
 Frc consts  --     0.7929                 4.6170                 0.7984
 IR Inten    --    11.9964               304.3565                 1.4443

                    34                     35                     36
                     A                      A                      A
 Frequencies --   998.4854              1022.7508              1030.8356
 Red. masses --     8.1893                 2.9746                 1.3897
 Frc consts  --     4.8104                 1.8333                 0.8701
 IR Inten    --   309.1095                13.4754                14.6908

                    37                     38                     39
                     A                      A                      A
 Frequencies --  1104.5522              1118.9347              1126.1473
 Red. masses --     2.8203                 2.9927                 1.4763
 Frc consts  --     2.0273                 2.2076                 1.1031
 IR Inten    --    75.3269                18.1015                12.9839

                    40                     41                     42
                     A                      A                      A
 Frequencies --  1168.3478              1195.2709              1311.0708
 Red. masses --     8.8468                 1.3709                 1.2878
 Frc consts  --     7.1151                 1.1540                 1.3042
 IR Inten    --   506.0349                 8.2487                 8.4698

                    43                     44                     45
                     A                      A                      A
 Frequencies --  1373.2126              1384.3761              1441.4943
 Red. masses --     8.8566                14.4366                 3.4640
 Frc consts  --     9.8400                16.3013                 4.2409
 IR Inten    --    51.1990               209.9959                 2.5364

                    46                     47                     48
                     A                      A                      A
 Frequencies --  1483.2418              1603.2972              1620.2014
 Red. masses --     2.1225                10.3737                 5.9062
 Frc consts  --     2.7512                15.7112                 9.1348
 IR Inten    --     8.0005               142.1444                34.1013

                    49                     50                     51
                     A                      A                      A
 Frequencies --  1650.3026              2373.6327              3192.5901
 Red. masses --    10.3110                13.9657                 1.0978
 Frc consts  --    16.5454                46.3597                 6.5924
 IR Inten    --   107.6354                47.6574               167.2362

                    52                     53                     54
                     A                      A                      A
 Frequencies --  3218.3231              3238.0145              3240.7480
 Red. masses --     1.0928                 1.0934                 1.0951
 Frc consts  --     6.6691                 6.7546                 6.7765
 IR Inten    --     2.1349                15.8343                11.6900

 - Thermochemistry -
 -------------------
 Temperature   298.150 Kelvin.  Pressure   1.00000 Atm.
 Atom     1 has atomic number  6 and mass  12.00000

 Molecular mass:   237.03327 amu.
 Principal axes and moments of inertia in atomic units:
                           1         2         3
     Eigenvalues --  1472.411787608.142468580.32832
           X            0.99999   0.00240  -0.00218
           Y           -0.00236   0.99983   0.01834
           Z            0.00222  -0.01834   0.99983
 This molecule is an asymmetric top.
 Rotational symmetry number  1.
 Warning -- assumption of classical behavior for rotation
           may cause significant error
 Rotational temperatures (Kelvin)      0.05882     0.01138     0.01009
 Rotational constants (GHZ):           1.22570     0.23721     0.21033
 Zero-point vibrational energy     303497.8 (Joules/Mol)
                                   72.53772 (Kcal/Mol)
 Warning -- explicit consideration of  23 degrees of freedom as
           vibrations may cause significant error
 Vibrational temperatures:     35.74    55.09    72.17    97.60    98.87
          (Kelvin)            152.26   163.52   188.14   282.10   332.33
                              377.97   469.68   478.18   489.85   590.51
                              619.55   687.34   692.17   706.57   713.44
                              772.68   791.17   820.84   925.50   976.61
                             1039.08  1099.53  1111.56  1203.00  1244.15
                             1296.96  1349.52  1424.99  1436.60  1471.51
                             1483.14  1589.20  1609.90  1620.27  1680.99
                             1719.73  1886.34  1975.74  1991.81  2073.99
                             2134.05  2306.78  2331.11  2374.41  3415.12
                             4593.42  4630.44  4658.77  4662.71

 Zero-point correction=                           0.115596 (Hartree/Particle)
 Thermal correction to Energy=                    0.130554
 Thermal correction to Enthalpy=                  0.131499
 Thermal correction to Gibbs Free Energy=         0.070745
 Sum of electronic and zero-point Energies=           -970.018257
 Sum of electronic and thermal Energies=              -970.003299
 Sum of electronic and thermal Enthalpies=            -970.002355
 Sum of electronic and thermal Free Energies=         -970.063108

                     E (Thermal)             CV                S
                      KCal/Mol        Cal/Mol-Kelvin    Cal/Mol-Kelvin
 Total                   81.924             52.718            127.866
 Electronic               0.000              0.000              0.000
 Translational            0.889              2.981             42.291
 Rotational               0.889              2.981             32.930
 Vibrational             80.147             46.757             52.645
 Vibration     1          0.593              1.985              6.204
 Vibration     2          0.594              1.982              5.346
 Vibration     3          0.595              1.978              4.811
 Vibration     4          0.598              1.970              4.215
 Vibration     5          0.598              1.969              4.190
 Vibration     6          0.605              1.945              3.344
 Vibration     7          0.607              1.938              3.206
 Vibration     8          0.612              1.923              2.935
 Vibration     9          0.636              1.845              2.170
 Vibration    10          0.653              1.794              1.871
 Vibration    11          0.670              1.741              1.644
 Vibration    12          0.710              1.623              1.278
 Vibration    13          0.714              1.611              1.249
 Vibration    14          0.720              1.595              1.210
 Vibration    15          0.775              1.448              0.925
 Vibration    16          0.792              1.404              0.857
 Vibration    17          0.834              1.299              0.716
 Vibration    18          0.837              1.292              0.707
 Vibration    19          0.847              1.270              0.681
 Vibration    20          0.851              1.259              0.669
 Vibration    21          0.892              1.168              0.572
 Vibration    22          0.905              1.140              0.544
 Vibration    23          0.927              1.095              0.503

 Normal termination of Gaussian 09 at Wed Feb 22 16:58:41 2017.
