 Gaussian 09, Revision D.01,
 Gaussian 09:  IA32W-G09RevD.01 24-Apr-2013

 ----------------------------------------------------------------------
 #p opt=(verytight,maxcycles=1000,cartesian) int=ultrafine freq rb3lyp/
 aug-cc-pvdz
 ----------------------------------------------------------------------

 ----------------------------------
 p-NO2-Ph-N2-BF4-RB3LYP-aug-cc-pVDZ
 ----------------------------------
 Symbolic Z-matrix:
 Charge =  0 Multiplicity = 1

 SCF Done:  E(RB3LYP) =  -645.489202378     A.U. after   17 cycles
 SCF Done:  E(RB3LYP) =  -645.489202378     A.U. after    7 cycles
 SCF Done:  E(RB3LYP) =  -645.489202379     A.U. after    5 cycles
 SCF Done:  E(RB3LYP) =  -645.489202379     A.U. after    5 cycles
 SCF Done:  E(RB3LYP) =  -645.489202379     A.U. after    4 cycles
 SCF Done:  E(RB3LYP) =  -645.489202379     A.U. after    4 cycles
 SCF Done:  E(RB3LYP) =  -645.489202379     A.U. after    4 cycles
 SCF Done:  E(RB3LYP) =  -645.489202379     A.U. after    5 cycles
 SCF Done:  E(RB3LYP) =  -645.489202379     A.U. after    5 cycles
 SCF Done:  E(RB3LYP) =  -645.489202379     A.U. after    4 cycles
 SCF Done:  E(RB3LYP) =  -645.489202379     A.U. after    4 cycles
 SCF Done:  E(RB3LYP) =  -645.489202379     A.U. after    4 cycles
 SCF Done:  E(RB3LYP) =  -645.489202379     A.U. after    4 cycles
 SCF Done:  E(RB3LYP) =  -645.489202379     A.U. after    4 cycles
 SCF Done:  E(RB3LYP) =  -645.489202379     A.U. after    4 cycles
 SCF Done:  E(RB3LYP) =  -645.489202379     A.U. after    5 cycles
 SCF Done:  E(RB3LYP) =  -645.489202379     A.U. after    5 cycles
 SCF Done:  E(RB3LYP) =  -645.489202379     A.U. after    4 cycles
 SCF Done:  E(RB3LYP) =  -645.489202379     A.U. after    4 cycles
 Optimization completed.
    -- Stationary point found.
 Normal termination of Gaussian 09 at Mon Oct 16 20:57:35 2017.

 ----------------------------------------------------------------------
 #P Geom=AllCheck Guess=TCheck SCRF=Check GenChk RB3LYP/Aug-CC-pVDZ Fre
 q
 ----------------------------------------------------------------------

 Structure from the checkpoint file:  ".\gxx.chk"
 ----------------------------------
 p-NO2-Ph-N2-BF4-RB3LYP-aug-cc-pVDZ
 ----------------------------------
 Charge =  0 Multiplicity = 1

                         Standard orientation:
 ---------------------------------------------------------------------
 Center     Atomic      Atomic             Coordinates (Angstroms)
 Number     Number       Type             X           Y           Z
 ---------------------------------------------------------------------
      1          6           0        0.629320    1.167167    0.000059
      2          6           0       -0.764607    1.093186    0.000081
      3          6           0       -1.356279   -0.169532    0.000022
      4          6           0       -0.612856   -1.358461   -0.000060
      5          6           0        0.776088   -1.275894   -0.000083
      6          6           0        1.371315   -0.012768   -0.000023
      7          1           0        1.139282    2.126869    0.000104
      8          1           0       -1.400635    1.971905    0.000139
      9          1           0       -1.116323   -2.322617   -0.000104
     10          1           0        1.395952   -2.168551   -0.000148
     11          7           0        2.852329    0.073159   -0.000047
     12          8           0        3.353752    1.191799    0.000009
     13          8           0        3.478948   -0.981475   -0.000118
     14          7           0       -2.790456   -0.326505    0.000048
     15          7           0       -3.563070   -1.156325    0.000059
     16          9           0       -3.381043    1.323923    0.000055
 ---------------------------------------------------------------------

 SCF Done:  E(RB3LYP) =  -645.489202379     A.U. after    2 cycles

 The electronic state is 1-A.
 Alpha  occ. eigenvalues --  -24.63278 -19.21629 -19.21618 -14.60411 -14.54266
 Alpha  occ. eigenvalues --  -14.45191 -10.31567 -10.29828 -10.26782 -10.26252
 Alpha  occ. eigenvalues --  -10.25956 -10.25762  -1.26703  -1.17288  -1.09500
 Alpha  occ. eigenvalues --   -1.07574  -0.94660  -0.87878  -0.82323  -0.79280
 Alpha  occ. eigenvalues --   -0.69443  -0.68499  -0.62606  -0.59810  -0.57084
 Alpha  occ. eigenvalues --   -0.56702  -0.54526  -0.53121  -0.51750  -0.50890
 Alpha  occ. eigenvalues --   -0.49180  -0.48414  -0.46706  -0.43392  -0.41658
 Alpha  occ. eigenvalues --   -0.35088  -0.34890  -0.34189  -0.33982  -0.33143
 Alpha  occ. eigenvalues --   -0.33114  -0.32263  -0.31275
 Alpha virt. eigenvalues --   -0.14530  -0.09465  -0.08415  -0.07687  -0.02243
 Alpha virt. eigenvalues --   -0.02112  -0.00310   0.00897   0.01516   0.02939
 Alpha virt. eigenvalues --    0.03022   0.04747   0.05937   0.06181   0.06527

 Mulliken charges:
               1
     1  C    0.787147
     2  C    0.905824
     3  C    0.415231
     4  C    1.035236
     5  C    0.942798
     6  C    0.606377
     7  H   -0.819246
     8  H   -0.842893
     9  H   -0.865186
    10  H   -0.826598
    11  N    0.702033
    12  O   -0.660126
    13  O   -0.661919
    14  N    0.576190
    15  N   -0.763133
    16  F   -0.531735
 Sum of Mulliken charges =   0.00000

 Dipole moment (field-independent basis, Debye):
    X=              0.8543    Y=             -2.3896    Z=              0.0000  Tot=              2.5378
 Quadrupole moment (field-independent basis, Debye-Ang):
   XX=           -100.2046   YY=            -64.6430   ZZ=            -66.6255
   XY=              6.6554   XZ=              0.0005   YZ=              0.0003

  Exact polarizability: 159.250   2.528 119.595  -0.002   0.003  55.939
 Approx polarizability: 233.321  11.609 256.771  -0.003   0.006  88.326

                      1                      2                      3
                      A                      A                      A
 Frequencies --     22.7377                52.5805                85.2219
 Red. masses --     10.7163                 7.4868                 9.9880
 Frc consts  --      0.0033                 0.0122                 0.0427
 IR Inten    --      3.8390                 0.0725                 7.6602

                      4                      5                      6
                      A                      A                      A
 Frequencies --    165.6476               251.2023               271.2835
 Red. masses --     12.0084                 7.7961                10.5276
 Frc consts  --      0.1941                 0.2899                 0.4565
 IR Inten    --     16.8836                 0.0193                 3.5970

                      7                      8                      9
                      A                      A                      A
 Frequencies --    293.6946               354.3016               422.3021
 Red. masses --      9.4442                11.0798                 2.9583
 Frc consts  --      0.4800                 0.8195                 0.3108
 IR Inten    --     10.6212                74.0489                 0.0080

                     10                     11                     12
                      A                      A                      A
 Frequencies --    431.9997               444.0467               516.1210
 Red. masses --     12.1069                 4.5604                 9.5087
 Frc consts  --      1.3312                 0.5298                 1.4924
 IR Inten    --     19.0658                 0.1746                15.8730

                     13                     14                     15
                      A                      A                      A
 Frequencies --    560.2741               572.5532               625.0701
 Red. masses --      6.9605                 5.0213                 7.4480
 Frc consts  --      1.2873                 0.9698                 1.7145
 IR Inten    --     40.1070                13.9866                 7.2884

                     16                     17                     18
                      A                      A                      A
 Frequencies --    673.6694               694.2370               772.9781
 Red. masses --      8.3618                 3.8796                 4.1299
 Frc consts  --      2.2358                 1.1017                 1.4539
 IR Inten    --     82.0962                15.9818                17.4783

                     19                     20                     21
                      A                      A                      A
 Frequencies --    794.4616               843.1801               869.9618
 Red. masses --      8.0375                 1.2735                10.0782
 Frc consts  --      2.9890                 0.5335                 4.4940
 IR Inten    --     85.9622                 1.5736                23.7978

                     22                     23                     24
                      A                      A                      A
 Frequencies --    895.7497               998.6316              1020.9528
 Red. masses --      1.7077                 1.3892                 1.3732
 Frc consts  --      0.8073                 0.8163                 0.8433
 IR Inten    --     36.1664                 0.0441                 0.1747

                     25                     26                     27
                      A                      A                      A
 Frequencies --   1021.9124              1107.4548              1117.5872
 Red. masses --      2.8453                 1.6798                 1.8255
 Frc consts  --      1.7507                 1.2138                 1.3433
 IR Inten    --     10.3820                41.0241                10.4554

                     28                     29                     30
                      A                      A                      A
 Frequencies --   1130.8958              1182.7702              1295.3143
 Red. masses --      2.8407                 1.4458                 1.2688
 Frc consts  --      2.1406                 1.1917                 1.2543
 IR Inten    --      7.7710                 0.0004                 1.1706

                     31                     32                     33
                      A                      A                      A
 Frequencies --   1372.9290              1385.5250              1435.2440
 Red. masses --      8.7874                14.5637                 3.9315
 Frc consts  --      9.7590                16.4722                 4.7716
 IR Inten    --     38.2253               256.0436                 2.9651

                     34                     35                     36
                      A                      A                      A
 Frequencies --   1493.1179              1602.7177              1627.5410
 Red. masses --      2.3721                12.0813                 6.2925
 Frc consts  --      3.1158                18.2844                 9.8205
 IR Inten    --     17.0790               199.3077                 5.0540

                     37                     38                     39
                      A                      A                      A
 Frequencies --   1655.8276              2157.8105              3220.6053
 Red. masses --      9.2822                13.9647                 1.0915
 Frc consts  --     14.9945                38.3097                 6.6702
 IR Inten    --     57.1029               104.4504                 1.7146

                     40                     41                     42
                      A                      A                      A
 Frequencies --   3236.1920              3238.3377              3262.6301
 Red. masses --      1.0920                 1.0950                 1.0948
 Frc consts  --      6.7380                 6.7655                 6.8663
 IR Inten    --      6.3078                 6.9826                22.5495

 - Thermochemistry -
 -------------------
 Temperature   298.150 Kelvin.  Pressure   1.00000 Atm.
 Atom     1 has atomic number  6 and mass  12.00000

 Molecular mass:   169.02875 amu.
 Principal axes and moments of inertia in atomic units:
                           1         2         3
     Eigenvalues --   653.697913806.769294460.46720
           X            0.99999   0.00414   0.00002
           Y           -0.00414   0.99999  -0.00004
           Z           -0.00002   0.00004   1.00000
 This molecule is an asymmetric top.
 Rotational symmetry number  1.
 Warning -- assumption of classical behavior for rotation
           may cause significant error
 Rotational temperatures (Kelvin)      0.13250     0.02275     0.01942
 Rotational constants (GHZ):           2.76082     0.47409     0.40461
 Zero-point vibrational energy     270220.1 (Joules/Mol)
                                   64.58415 (Kcal/Mol)
 Warning -- explicit consideration of  14 degrees of freedom as
           vibrations may cause significant error
 Vibrational temperatures:     32.71    75.65   122.62   238.33   361.42
          (Kelvin)            390.32   422.56   509.76   607.60   621.55
                              638.88   742.58   806.11   823.78   899.34
                              969.26   998.85  1112.14  1143.05  1213.15
                             1251.68  1288.78  1436.81  1468.92  1470.30
                             1593.38  1607.96  1627.10  1701.74  1863.67
                             1975.34  1993.46  2064.99  2148.26  2305.95
                             2341.67  2382.36  3104.60  4633.73  4656.15
                             4659.24  4694.19

 Zero-point correction=                           0.102921 (Hartree/Particle)
 Thermal correction to Energy=                    0.112966
 Thermal correction to Enthalpy=                  0.113910
 Thermal correction to Gibbs Free Energy=         0.065402
 Sum of electronic and zero-point Energies=           -645.386281
 Sum of electronic and thermal Energies=              -645.376236
 Sum of electronic and thermal Enthalpies=            -645.375292
 Sum of electronic and thermal Free Energies=         -645.423801

                     E (Thermal)             CV                S
                      KCal/Mol        Cal/Mol-Kelvin    Cal/Mol-Kelvin
 Total                   70.887             36.606            102.094
 Electronic               0.000              0.000              0.000
 Translational            0.889              2.981             41.283
 Rotational               0.889              2.981             30.785
 Vibrational             69.110             30.645             30.027
 Vibration     1          0.593              1.985              6.379
 Vibration     2          0.596              1.977              4.718
 Vibration     3          0.601              1.959              3.767
 Vibration     4          0.624              1.885              2.484
 Vibration     5          0.663              1.761              1.722
 Vibration     6          0.675              1.726              1.588
 Vibration     7          0.688              1.685              1.453
 Vibration     8          0.730              1.566              1.147
 Vibration     9          0.785              1.422              0.884
 Vibration    10          0.793              1.401              0.852
 Vibration    11          0.804              1.374              0.814
 Vibration    12          0.871              1.214              0.619
 Vibration    13          0.916              1.117              0.523
 Vibration    14          0.929              1.091              0.499

 Normal termination of Gaussian 09 at Mon Oct 16 23:30:44 2017.
