 Gaussian 09, Revision B.01,
 Gaussian 09:  EM64L-G09RevB.01 12-Aug-2010

 ----------------------------------------------------------------------
 #p Temperature=358.15 int=(grid=ultrafine) CPHF=(grid=fine) freq rb3ly
 p/aug-cc-pvdz
 ----------------------------------------------------------------------

 -----------------------------------
 p-NO2-Ph-F-BF3-RB3LYP-aug-cc-pVDZ--
 -----------------------------------
 Symbolic Z-matrix:
 Charge =  0 Multiplicity = 1

                         Standard orientation:
 ---------------------------------------------------------------------
 Center     Atomic      Atomic             Coordinates (Angstroms)
 Number     Number       Type             X           Y           Z
 ---------------------------------------------------------------------
      1          6           0       -2.032551    1.347539   -0.000002
      2          6           0       -0.677301    1.674530   -0.000002
      3          6           0        0.250999    0.637450   -0.000012
      4          6           0       -0.104930   -0.708000   -0.000022
      5          6           0       -1.461660   -1.030440   -0.000012
      6          6           0       -2.403550    0.000889   -0.000002
      7          1           0       -2.799671    2.117519    0.000008
      8          1           0       -0.340351    2.709250   -0.000002
      9          1           0        0.664770   -1.476910   -0.000032
     10          1           0       -1.795970   -2.064690   -0.000012
     11          7           0       -3.837260   -0.342841    0.000008
     12          8           0       -4.139000   -1.533751   -0.000002
     13          8           0       -4.646111    0.582019    0.000018
     14          9           0        1.573019    0.961730   -0.000022
     15          5           0        3.921410   -0.348300    0.000008
     16          9           0        3.297060   -1.524260   -0.000012
     17          9           0        4.252710    0.222270    1.149858
     18          9           0        4.252750    0.222290   -1.149812
 ---------------------------------------------------------------------

 SCF Done:  E(RB3LYP) =  -860.662926373     A.U. after   14 cycles

 The electronic state is 1-A.
 Alpha  occ. eigenvalues --  -24.76416 -24.75574 -24.75252 -24.75248 -19.19804
 Alpha  occ. eigenvalues --  -19.19802 -14.58661 -10.32114 -10.27360 -10.24572
 Alpha  occ. eigenvalues --  -10.24546 -10.24061 -10.23967  -6.94542  -1.28607
 Alpha  occ. eigenvalues --   -1.27163  -1.24963  -1.24841  -1.24819  -1.07563
 Alpha  occ. eigenvalues --   -0.91972  -0.83263  -0.80628  -0.72583  -0.67302
 Alpha  occ. eigenvalues --   -0.63102  -0.62344  -0.59348  -0.58479  -0.58333
 Alpha  occ. eigenvalues --   -0.57370  -0.55313  -0.54958  -0.53867  -0.52022
 Alpha  occ. eigenvalues --   -0.51097  -0.49463  -0.47951  -0.47897  -0.47728
 Alpha  occ. eigenvalues --   -0.46921  -0.46765  -0.45686  -0.44744  -0.43943
 Alpha  occ. eigenvalues --   -0.40863  -0.39472  -0.33383  -0.33142  -0.31365
 Alpha  occ. eigenvalues --   -0.30696  -0.29865
 Alpha virt. eigenvalues --   -0.11324  -0.06248  -0.02669  -0.02171  -0.01002
 Alpha virt. eigenvalues --   -0.00141   0.00472   0.01851   0.01882   0.02436
 Alpha virt. eigenvalues --    0.02919   0.04445   0.04752   0.05001   0.06424

 Mulliken atomic charges:
              1
     1  C    1.438016
     2  C    0.734163
     3  C   -0.051324
     4  C    0.869519
     5  C    0.908968
     6  C    0.701876
     7  H   -0.845555
     8  H   -0.832298
     9  H   -0.835280
    10  H   -0.824746
    11  N    0.703757
    12  O   -0.670891
    13  O   -0.680738
    14  F   -0.658048
    15  B    1.391533
    16  F   -0.481769
    17  F   -0.433593
    18  F   -0.433590
 Sum of Mulliken atomic charges =   0.00000

 Dipole moment (field-independent basis, Debye):
    X=              2.6512    Y=              0.8477    Z=              0.0000  Tot=              2.7835
 Quadrupole moment (field-independent basis, Debye-Ang):
   XX=           -101.7566   YY=            -72.7182   ZZ=            -78.7642
   XY=             -6.7864   XZ=             -0.0001   YZ=              0.0000

  Exact polarizability: 142.566   5.594 112.298   0.000   0.000  64.704
 Approx polarizability: 208.315   2.415 207.076  -0.001   0.001  97.480

                     1                      2                      3
                     A                      A                      A
 Frequencies --     3.9951                19.9283                34.7641
 Red. masses --    14.3993                 8.0134                11.9668
 Frc consts  --     0.0001                 0.0019                 0.0085
 IR Inten    --     0.3785                 0.0165                 0.3840

                     4                      5                      6
                     A                      A                      A
 Frequencies --    51.5026                61.1423                64.4908
 Red. masses --    13.5131                 7.8715                15.0987
 Frc consts  --     0.0211                 0.0173                 0.0370
 IR Inten    --     0.5596                 0.0300                 0.3549

                     7                      8                      9
                     A                      A                      A
 Frequencies --    79.2062               117.3354               229.0611
 Red. masses --    16.0753                10.9759                 9.5933
 Frc consts  --     0.0594                 0.0890                 0.2966
 IR Inten    --     0.2238                 3.9773                 3.8759

                    10                     11                     12
                     A                      A                      A
 Frequencies --   311.6741               356.3060               407.8744
 Red. masses --     7.5439                13.3875                 7.1794
 Frc consts  --     0.4318                 1.0014                 0.7037
 IR Inten    --     0.0694                 0.7155                 3.3678

                    13                     14                     15
                     A                      A                      A
 Frequencies --   430.7558               455.2970               456.1761
 Red. masses --     2.9761                17.8112                17.8299
 Frc consts  --     0.3254                 2.1754                 2.1861
 IR Inten    --     0.0186                10.1111                10.5844

                    16                     17                     18
                     A                      A                      A
 Frequencies --   500.5532               532.5596               621.6401
 Red. masses --     2.8738                 6.8587                 8.1878
 Frc consts  --     0.4242                 1.1461                 1.8642
 IR Inten    --     8.6863                 0.7446                48.6282

                    19                     20                     21
                     A                      A                      A
 Frequencies --   636.2375               681.3867               701.8476
 Red. masses --     7.2332                11.8063                 3.6115
 Frc consts  --     1.7251                 3.2296                 1.0482
 IR Inten    --     0.3061               191.0760                11.4951

                    22                     23                     24
                     A                      A                      A
 Frequencies --   773.6456               809.6769               828.8814
 Red. masses --     4.6394                 7.4907                 1.2477
 Frc consts  --     1.6361                 2.8933                 0.5051
 IR Inten    --    22.2414                 0.6418                 0.5794

                    25                     26                     27
                     A                      A                      A
 Frequencies --   849.9591               873.0471               878.2930
 Red. masses --    18.9363                 9.2862                 1.7791
 Frc consts  --     8.0601                 4.1703                 0.8086
 IR Inten    --     1.2046                52.0322                44.7093

                    28                     29                     30
                     A                      A                      A
 Frequencies --   989.2127               996.6287              1020.6673
 Red. masses --     1.4110                 1.3583                 2.5636
 Frc consts  --     0.8135                 0.7949                 1.5735
 IR Inten    --     0.1464                 0.0037                 7.2164

                    31                     32                     33
                     A                      A                      A
 Frequencies --  1109.8703              1120.6052              1164.5420
 Red. masses --     1.2105                 2.8624                 1.2917
 Frc consts  --     0.8785                 2.1178                 1.0321
 IR Inten    --    10.1216                41.6968                25.5322

                    34                     35                     36
                     A                      A                      A
 Frequencies --  1231.4259              1293.0620              1373.7600
 Red. masses --     4.3899                 1.2827                10.1200
 Frc consts  --     3.9222                 1.2636                11.2526
 IR Inten    --   134.0755                 2.0736                17.9027

                    37                     38                     39
                     A                      A                      A
 Frequencies --  1382.3520              1395.4366              1416.2490
 Red. masses --    14.2511                11.9944                12.2912
 Frc consts  --    16.0448                13.7610                14.5252
 IR Inten    --   364.0957               342.5451               389.9963

                    40                     41                     42
                     A                      A                      A
 Frequencies --  1439.7788              1510.8789              1594.8149
 Red. masses --     3.8015                 2.6200                13.0335
 Frc consts  --     4.6429                 3.5238                19.5313
 IR Inten    --     2.6608                93.5077               197.8112

                    43                     44                     45
                     A                      A                      A
 Frequencies --  1634.1224              1661.3837              3215.3689
 Red. masses --     6.3444                 8.6877                 1.0915
 Frc consts  --     9.9818                14.1285                 6.6488
 IR Inten    --    90.2751                62.5356                 0.0629

                    46                     47                     48
                     A                      A                      A
 Frequencies --  3222.0453              3236.4314              3237.0721
 Red. masses --     1.0908                 1.0941                 1.0952
 Frc consts  --     6.6723                 6.7519                 6.7613
 IR Inten    --     0.9322                 4.6312                 4.3672

 - Thermochemistry -
 -------------------
 Temperature   358.150 Kelvin.  Pressure   1.00000 Atm.
 Atom     1 has atomic number  6 and mass  12.00000

 Molecular mass:   209.02712 amu.
 Principal axes and moments of inertia in atomic units:
                           1         2         3
     Eigenvalues --   918.905607664.055188224.16620
           X            1.00000  -0.00067   0.00000
           Y            0.00067   1.00000   0.00000
           Z            0.00000   0.00000   1.00000
 This molecule is an asymmetric top.
 Rotational symmetry number  1.
 Warning -- assumption of classical behavior for rotation
           may cause significant error
 Rotational temperatures (Kelvin)      0.09426     0.01130     0.01053
 Rotational constants (GHZ):           1.96401     0.23548     0.21944
 Zero-point vibrational energy     281199.9 (Joules/Mol)
                                   67.20838 (Kcal/Mol)
 Warning -- explicit consideration of  21 degrees of freedom as
           vibrations may cause significant error
 Vibrational temperatures:      5.75    28.67    50.02    74.10    87.97
          (Kelvin)             92.79   113.96   168.82   329.57   448.43
                              512.64   586.84   619.76   655.07   656.33
                              720.18   766.23   894.40   915.40   980.36
                             1009.80  1113.10  1164.94  1192.57  1222.90
                             1256.12  1263.67  1423.25  1433.92  1468.51
                             1596.85  1612.30  1675.51  1771.74  1860.43
                             1976.53  1988.89  2007.72  2037.66  2071.52
                             2173.82  2294.58  2351.13  2390.36  4626.19
                             4635.80  4656.50  4657.42

 Zero-point correction=                           0.107103 (Hartree/Particle)
 Thermal correction to Energy=                    0.125150
 Thermal correction to Enthalpy=                  0.126284
 Thermal correction to Gibbs Free Energy=         0.047416
 Sum of electronic and zero-point Energies=           -860.555823
 Sum of electronic and thermal Energies=              -860.537777
 Sum of electronic and thermal Enthalpies=            -860.536642
 Sum of electronic and thermal Free Energies=         -860.615510

                     E (Thermal)             CV                S
                      KCal/Mol        Cal/Mol-Kelvin    Cal/Mol-Kelvin
 Total                   78.533             51.099            138.184
 Electronic               0.000              0.000              0.000
 Translational            1.068              2.981             42.827
 Rotational               1.068              2.981             32.973
 Vibrational             76.398             45.137             62.384
 Vibration     1          0.712              1.987             10.199
 Vibration     2          0.712              1.986              7.005
 Vibration     3          0.713              1.984              5.901
 Vibration     4          0.714              1.980              5.122
 Vibration     5          0.715              1.977              4.782
 Vibration     6          0.716              1.976              4.677
 Vibration     7          0.718              1.971              4.271
 Vibration     8          0.725              1.951              3.500
 Vibration     9          0.761              1.853              2.221
 Vibration    10          0.802              1.747              1.665
 Vibration    11          0.829              1.680              1.436
 Vibration    12          0.864              1.596              1.214
 Vibration    13          0.881              1.558              1.128
 Vibration    14          0.900              1.515              1.043
 Vibration    15          0.901              1.513              1.040
 Vibration    16          0.937              1.434              0.903
 Vibration    17          0.965              1.376              0.816
 Vibration    18          1.048              1.211              0.616
 Vibration    19          1.063              1.184              0.588
 Vibration    20          1.109              1.102              0.510
 Vibration    21          1.131              1.065              0.478

 Optimization completed.
    -- Stationary point found.
 Normal termination of Gaussian 09 at Thu Apr 27 21:44:28 2017.
