 Gaussian 09, Revision B.01,
 Gaussian 09:  EM64L-G09RevB.01 12-Aug-2010

 ----------------------------------------------------------------------
 #p Temperature=353.15 int=(grid=ultrafine) CPHF=(grid=fine) freq rb3ly
 p/aug-cc-pvdz
 ----------------------------------------------------------------------

 --------------------------------------
 p-NO2-Ph-Ph-p-NO2-RB3LYP-aug-cc-pVDZ--
 --------------------------------------
 Symbolic Z-matrix:
 Charge =  0 Multiplicity = 1

                         Standard orientation:
 ---------------------------------------------------------------------
 Center     Atomic      Atomic             Coordinates (Angstroms)
 Number     Number       Type             X           Y           Z
 ---------------------------------------------------------------------
      1          6           0        0.742180    0.000000   -0.000020
      2          6           0        1.462290    1.144100   -0.394950
      3          6           0        2.855180    1.151850   -0.399480
      4          6           0        3.533940    0.000000   -0.000100
      5          6           0        2.855200   -1.151850    0.399310
      6          6           0        1.462310   -1.144100    0.394870
      7          1           0        0.928130    2.032000   -0.729980
      8          1           0        3.417900    2.027390   -0.713130
      9          1           0        3.417940   -2.027390    0.712930
     10          1           0        0.928170   -2.032000    0.729930
     11          7           0        5.009400    0.000000   -0.000140
     12          8           0        5.580220    1.029710   -0.351440
     13          8           0        5.580240   -1.029710    0.351120
     14          6           0       -0.742180    0.000000    0.000020
     15          6           0       -1.462290    1.143990    0.395270
     16          6           0       -1.462310   -1.143990   -0.395180
     17          6           0       -2.855180    1.151740    0.399800
     18          1           0       -0.928130    2.031800    0.730550
     19          6           0       -2.855200   -1.151740   -0.399630
     20          1           0       -0.928170   -2.031800   -0.730490
     21          6           0       -3.533940    0.000000    0.000100
     22          1           0       -3.417900    2.027190    0.713690
     23          1           0       -3.417940   -2.027190   -0.713500
     24          7           0       -5.009400    0.000000    0.000140
     25          8           0       -5.580220    1.029610    0.351730
     26          8           0       -5.580240   -1.029610   -0.351410
 ---------------------------------------------------------------------

 SCF Done:  E(RB3LYP) =  -872.431894549     A.U. after   27 cycles

 The electronic state is 1-A.
 Alpha  occ. eigenvalues --  -19.19857 -19.19857 -19.19857 -19.19857 -14.58657
 Alpha  occ. eigenvalues --  -14.58657 -10.27356 -10.27356 -10.25104 -10.25077
 Alpha  occ. eigenvalues --  -10.23990 -10.23990 -10.23989 -10.23988 -10.23667
 Alpha  occ. eigenvalues --  -10.23666 -10.23665 -10.23664  -1.24861  -1.24861
 Alpha  occ. eigenvalues --   -1.07592  -1.07592  -0.92542  -0.91011  -0.85550
 Alpha  occ. eigenvalues --   -0.81564  -0.80180  -0.79486  -0.74961  -0.70006
 Alpha  occ. eigenvalues --   -0.67120  -0.64517  -0.63152  -0.61031  -0.58778
 Alpha  occ. eigenvalues --   -0.58032  -0.55323  -0.55320  -0.54547  -0.54067
 Alpha  occ. eigenvalues --   -0.53398  -0.50897  -0.49465  -0.48654  -0.48593
 Alpha  occ. eigenvalues --   -0.47295  -0.46560  -0.45901  -0.42559  -0.40785
 Alpha  occ. eigenvalues --   -0.40283  -0.40086  -0.38437  -0.33414  -0.33413
 Alpha  occ. eigenvalues --   -0.33161  -0.33110  -0.33000  -0.31438  -0.31376
 Alpha  occ. eigenvalues --   -0.30293  -0.30238  -0.28178
 Alpha virt. eigenvalues --   -0.12683  -0.10611  -0.06131  -0.05705  -0.04753
 Alpha virt. eigenvalues --   -0.02512  -0.01295  -0.00670  -0.00542   0.00489
 Alpha virt. eigenvalues --    0.01591   0.01653   0.01722   0.02143   0.03170

 Mulliken atomic charges:
              1
     1  C    1.841819
     2  C    0.653029
     3  C    0.512512
     4  C    0.252426
     5  C    0.512522
     6  C    0.653067
     7  H   -1.015723
     8  H   -0.885814
     9  H   -0.885814
    10  H   -1.015722
    11  N    0.722478
    12  O   -0.672388
    13  O   -0.672388
    14  C    1.841836
    15  C    0.653004
    16  C    0.653031
    17  C    0.512564
    18  H   -1.015716
    19  C    0.512521
    20  H   -1.015717
    21  C    0.252403
    22  H   -0.885822
    23  H   -0.885814
    24  N    0.722480
    25  O   -0.672389
    26  O   -0.672388
 Sum of Mulliken atomic charges =   0.00000

 Dipole moment (field-independent basis, Debye):
    X=              0.0000    Y=              0.0000    Z=              0.0000  Tot=              0.0000
 Quadrupole moment (field-independent basis, Debye-Ang):
   XX=           -169.9667   YY=            -95.2471   ZZ=           -102.6603
   XY=              0.0000   XZ=              0.0020   YZ=              0.0010

  Exact polarizability: 324.776   0.000 168.838  -0.007   0.010  99.278
 Approx polarizability: 436.715   0.000 346.469  -0.008   0.024 170.561

                     1                      2                      3
                     A                      A                      A
 Frequencies --    36.8124                39.8818                57.0204
 Red. masses --    10.0819                10.5315                 7.9522
 Frc consts  --     0.0080                 0.0099                 0.0152
 IR Inten    --     3.9253                 0.0000                 0.0000

                     4                      5                      6
                     A                      A                      A
 Frequencies --    61.3405                77.9814               122.3672
 Red. masses --     8.6930                 4.2089                 8.4913
 Frc consts  --     0.0193                 0.0151                 0.0749
 IR Inten    --     3.4770                 0.0000                 0.2418

                     7                      8                      9
                     A                      A                      A
 Frequencies --   184.7640               204.5569               232.5332
 Red. masses --     8.4658                11.6070                 7.7773
 Frc consts  --     0.1703                 0.2862                 0.2478
 IR Inten    --     1.5644                 0.0000                 3.6885

                    10                     11                     12
                     A                      A                      A
 Frequencies --   264.8549               339.9075               396.7753
 Red. masses --     6.5498                 5.9862                10.2715
 Frc consts  --     0.2707                 0.4075                 0.9527
 IR Inten    --     1.7166                 0.0275                 5.4229

                    13                     14                     15
                     A                      A                      A
 Frequencies --   400.3478               416.9452               422.2048
 Red. masses --     4.8834                 2.9216                 2.9328
 Frc consts  --     0.4612                 0.2992                 0.3080
 IR Inten    --     0.2887                 0.5801                 0.0000

                    16                     17                     18
                     A                      A                      A
 Frequencies --   488.5648               524.9339               527.2075
 Red. masses --     4.2685                 7.3002                 7.0413
 Frc consts  --     0.6003                 1.1852                 1.1531
 IR Inten    --     9.2050                 0.0000                 3.5097

                    19                     20                     21
                     A                      A                      A
 Frequencies --   544.0622               546.1112               632.9399
 Red. masses --     5.0923                 2.9819                 7.0251
 Frc consts  --     0.8881                 0.5240                 1.6582
 IR Inten    --     0.7888                 1.1527                 0.0123

                    22                     23                     24
                     A                      A                      A
 Frequencies --   645.0663               694.0574               705.7341
 Red. masses --     7.0344                 7.9187                 4.2313
 Frc consts  --     1.7246                 2.2475                 1.2417
 IR Inten    --     0.0025                 3.3051                14.1104

                    25                     26                     27
                     A                      A                      A
 Frequencies --   716.6580               759.0926               767.5680
 Red. masses --     3.1473                 3.5140                 6.9256
 Frc consts  --     0.9524                 1.1930                 2.4040
 IR Inten    --     5.2615                52.9895                 0.0000

                    28                     29                     30
                     A                      A                      A
 Frequencies --   790.8591               840.0876               840.6166
 Red. masses --     5.0562                 1.2541                 1.2496
 Frc consts  --     1.8633                 0.5215                 0.5203
 IR Inten    --     1.2495                 0.0000                 0.0884

                    31                     32                     33
                     A                      A                      A
 Frequencies --   859.3608               860.0551               870.2542
 Red. masses --    10.7048                 1.8157                 9.4592
 Frc consts  --     4.6578                 0.7913                 4.2208
 IR Inten    --   128.8865                44.4067                 0.0000

                    34                     35                     36
                     A                      A                      A
 Frequencies --   890.3992               985.3668               987.4925
 Red. masses --     2.0038                 1.3564                 1.3837
 Frc consts  --     0.9360                 0.7759                 0.7950
 IR Inten    --     7.1413                 2.4065                 0.2314

                    37                     38                     39
                     A                      A                      A
 Frequencies --   993.8532               993.8615              1016.0775
 Red. masses --     1.3683                 1.3687                 5.2396
 Frc consts  --     0.7963                 0.7965                 3.1871
 IR Inten    --     0.0366                 1.4627                10.2578

                    40                     41                     42
                     A                      A                      A
 Frequencies --  1025.0406              1041.3059              1121.4534
 Red. masses --     2.8322                 2.5594                 2.7686
 Frc consts  --     1.7533                 1.6351                 2.0515
 IR Inten    --     0.0000                 0.7507               114.4662

                    43                     44                     45
                     A                      A                      A
 Frequencies --  1121.8872              1124.9790              1125.3490
 Red. masses --     2.7349                 1.3077                 1.2367
 Frc consts  --     2.0281                 0.9751                 0.9228
 IR Inten    --     0.0005                12.2171                 1.0082

                    46                     47                     48
                     A                      A                      A
 Frequencies --  1194.8739              1204.3832              1301.2828
 Red. masses --     1.2549                 1.2992                 1.6465
 Frc consts  --     1.0556                 1.1103                 1.6427
 IR Inten    --     1.2939                 0.0000                 0.8408

                    49                     50                     51
                     A                      A                      A
 Frequencies --  1301.5880              1314.6102              1349.7639
 Red. masses --     3.4677                 1.3062                 3.2884
 Frc consts  --     3.4613                 1.3300                 3.5298
 IR Inten    --     0.0000                 0.0071                11.1150

                    52                     53                     54
                     A                      A                      A
 Frequencies --  1361.7046              1376.4655              1383.5491
 Red. masses --     9.4424                14.2823                14.1365
 Frc consts  --    10.3157                15.9433                15.9434
 IR Inten    --     3.9292               977.8620                 0.0001

                    55                     56                     57
                     A                      A                      A
 Frequencies --  1418.6232              1448.9612              1504.7732
 Red. masses --     3.3221                 3.5617                 2.2610
 Frc consts  --     3.9391                 4.4058                 3.0165
 IR Inten    --    16.7026                 0.1455                22.2175

                    58                     59                     60
                     A                      A                      A
 Frequencies --  1530.8738              1580.7887              1588.7660
 Red. masses --     2.7874                10.5415                12.2042
 Frc consts  --     3.8488                15.5202                18.1501
 IR Inten    --     0.0000               286.9887                42.3447

                    61                     62                     63
                     A                      A                      A
 Frequencies --  1639.3419              1639.8613              1642.2475
 Red. masses --     8.8131                 6.0020                 6.1345
 Frc consts  --    13.9546                 9.5096                 9.7477
 IR Inten    --   175.5614                 0.0001                72.9124

                    64                     65                     66
                     A                      A                      A
 Frequencies --  1648.7727              3193.7653              3193.7903
 Red. masses --     8.8025                 1.0905                 1.0905
 Frc consts  --    14.0986                 6.5537                 6.5539
 IR Inten    --    12.8197                 4.3405                 1.0720

                    67                     68                     69
                     A                      A                      A
 Frequencies --  3199.2919              3199.4995              3231.8699
 Red. masses --     1.0901                 1.0895                 1.0932
 Frc consts  --     6.5742                 6.5713                 6.7278
 IR Inten    --     0.0006                 5.7659                 0.3092

                    70                     71                     72
                     A                      A                      A
 Frequencies --  3231.9240              3232.4062              3232.6103
 Red. masses --     1.0933                 1.0941                 1.0943
 Frc consts  --     6.7283                 6.7353                 6.7372
 IR Inten    --     2.2200                 8.8562                 0.0135

 - Thermochemistry -
 -------------------
 Temperature   353.150 Kelvin.  Pressure   1.00000 Atm.
 Atom     1 has atomic number  6 and mass  12.00000

 Molecular mass:   244.04841 amu.
 Principal axes and moments of inertia in atomic units:
                           1         2         3
     Eigenvalues --   909.91722********************
           X            1.00000   0.00000   0.00003
           Y            0.00000   1.00000  -0.00014
           Z           -0.00003   0.00014   1.00000
 This molecule is an asymmetric top.
 Rotational symmetry number  1.
 Warning -- assumption of classical behavior for rotation
           may cause significant error
 Rotational temperatures (Kelvin)      0.09519     0.00678     0.00642
 Rotational constants (GHZ):           1.98341     0.14118     0.13370
 Zero-point vibrational energy     487149.1 (Joules/Mol)
                                  116.43144 (Kcal/Mol)
 Warning -- explicit consideration of  25 degrees of freedom as
           vibrations may cause significant error
 Vibrational temperatures:     52.96    57.38    82.04    88.26   112.20
          (Kelvin)            176.06   265.83   294.31   334.56   381.07
                              489.05   570.87   576.01   599.89   607.46
                              702.93   755.26   758.53   782.78   785.73
                              910.66   928.11   998.59  1015.39  1031.11
                             1092.16  1104.36  1137.87  1208.70  1209.46
                             1236.43  1237.43  1252.10  1281.08  1417.72
                             1420.78  1429.93  1429.94  1461.91  1474.80
                             1498.21  1613.52  1614.14  1618.59  1619.12
                             1719.15  1732.84  1872.25  1872.69  1891.43
                             1942.01  1959.19  1980.42  1990.62  2041.08
                             2084.73  2165.03  2202.58  2274.40  2285.88
                             2358.64  2359.39  2362.82  2372.21  4595.11
                             4595.15  4603.06  4603.36  4649.93  4650.01
                             4650.71  4651.00

 Zero-point correction=                           0.185545 (Hartree/Particle)
 Thermal correction to Energy=                    0.204759
 Thermal correction to Enthalpy=                  0.205877
 Thermal correction to Gibbs Free Energy=         0.131038
 Sum of electronic and zero-point Energies=           -872.246349
 Sum of electronic and thermal Energies=              -872.227135
 Sum of electronic and thermal Enthalpies=            -872.226017
 Sum of electronic and thermal Free Energies=         -872.300856

                     E (Thermal)             CV                S
                      KCal/Mol        Cal/Mol-Kelvin    Cal/Mol-Kelvin
 Total                  128.488             62.715            132.981
 Electronic               0.000              0.000              0.000
 Translational            1.053              2.981             43.219
 Rotational               1.053              2.981             33.922
 Vibrational            126.383             56.753             55.840
 Vibration     1          0.703              1.983              5.759
 Vibration     2          0.703              1.983              5.601
 Vibration     3          0.705              1.978              4.892
 Vibration     4          0.705              1.977              4.748
 Vibration     5          0.708              1.971              4.274
 Vibration     6          0.716              1.947              3.391
 Vibration     7          0.735              1.896              2.598
 Vibration     8          0.742              1.876              2.406
 Vibration     9          0.754              1.845              2.167
 Vibration    10          0.769              1.805              1.930
 Vibration    11          0.811              1.698              1.492
 Vibration    12          0.848              1.606              1.236
 Vibration    13          0.851              1.600              1.222
 Vibration    14          0.863              1.571              1.157
 Vibration    15          0.867              1.562              1.138
 Vibration    16          0.919              1.443              0.918
 Vibration    17          0.951              1.376              0.817
 Vibration    18          0.953              1.372              0.811
 Vibration    19          0.968              1.340              0.768
 Vibration    20          0.970              1.336              0.763
 Vibration    21          1.053              1.174              0.578
 Vibration    22          1.066              1.152              0.555
 Vibration    23          1.117              1.062              0.474
 Vibration    24          1.130              1.041              0.457
 Vibration    25          1.141              1.021              0.441

 Optimization completed.
    -- Stationary point found.
 Normal termination of Gaussian 09 at Wed May 10 12:37:25 2017.
