 Gaussian 09, Revision B.01,
 Gaussian 09:  EM64L-G09RevB.01 12-Aug-2010

 ----------------------------------------------------------------------
 #p opt=(verytight,maxcycles=1000) int=(grid=ultrafine) CPHF=(grid=fine
 ) freq rb3lyp/aug-cc-pvdz
 ----------------------------------------------------------------------

 ----------------------------------
 p-NO2-Ph-N2-OTs-RB3LYP-aug-cc-pVDZ
 ----------------------------------
 Symbolic Z-matrix:
 Charge =  0 Multiplicity = 1

 SCF Done:  E(RB3LYP) =  -1440.47932247     A.U. after   20 cycles
 SCF Done:  E(RB3LYP) =  -1440.47932329     A.U. after   12 cycles
 SCF Done:  E(RB3LYP) =  -1440.47932355     A.U. after   11 cycles
 SCF Done:  E(RB3LYP) =  -1440.47932233     A.U. after   12 cycles
 SCF Done:  E(RB3LYP) =  -1440.47932366     A.U. after   11 cycles
 SCF Done:  E(RB3LYP) =  -1440.47932372     A.U. after   11 cycles
 SCF Done:  E(RB3LYP) =  -1440.47932377     A.U. after   10 cycles
 SCF Done:  E(RB3LYP) =  -1440.47932378     A.U. after   13 cycles
 SCF Done:  E(RB3LYP) =  -1440.47932381     A.U. after   10 cycles
 SCF Done:  E(RB3LYP) =  -1440.47932384     A.U. after    9 cycles
 SCF Done:  E(RB3LYP) =  -1440.47932386     A.U. after    7 cycles
 SCF Done:  E(RB3LYP) =  -1440.47932386     A.U. after    6 cycles
 SCF Done:  E(RB3LYP) =  -1440.47932386     A.U. after    6 cycles
 SCF Done:  E(RB3LYP) =  -1440.47932386     A.U. after    6 cycles
 SCF Done:  E(RB3LYP) =  -1440.47932386     A.U. after    5 cycles
 SCF Done:  E(RB3LYP) =  -1440.47932386     A.U. after    4 cycles
 SCF Done:  E(RB3LYP) =  -1440.47932386     A.U. after    5 cycles
 SCF Done:  E(RB3LYP) =  -1440.47932386     A.U. after    4 cycles
 SCF Done:  E(RB3LYP) =  -1440.47932386     A.U. after   12 cycles
 Optimization completed.
    -- Stationary point found.
 Normal termination of Gaussian 09 at Tue Apr 18 18:48:31 2017.

 ----------------------------------------------------------------------
 #P Geom=AllCheck Guess=TCheck SCRF=Check GenChk RB3LYP/Aug-CC-pVDZ Fre
 q
 ----------------------------------------------------------------------

 p-NO2-Ph-N2-OTs-RB3LYP-aug-cc-pVDZ
 ----------------------------------
 Redundant internal coordinates taken from checkpoint file:
 /home/ubuntu/g09/Gau-21851.chk
 Charge =  0 Multiplicity = 1

                         Standard orientation:
 ---------------------------------------------------------------------
 Center     Atomic      Atomic             Coordinates (Angstroms)
 Number     Number       Type             X           Y           Z
 ---------------------------------------------------------------------
      1          6           0        2.871355    0.303893   -1.128452
      2          6           0        1.997382   -0.779391   -1.114896
      3          6           0        2.010192   -1.658699   -0.022588
      4          6           0        2.905763   -1.481623    1.039217
      5          6           0        3.763938   -0.383999    1.039474
      6          6           0        3.734028    0.492359   -0.046124
      7          1           0        2.888560    1.005139   -1.958740
      8          1           0        1.310356   -0.945288   -1.941355
      9          1           0        2.921251   -2.200219    1.856817
     10          1           0        4.458314   -0.208127    1.856901
     11          7           0        4.648178    1.650049   -0.055368
     12          8           0        5.399311    1.792307    0.906307
     13          8           0        4.602987    2.405436   -1.023480
     14          7           0        1.216506   -2.848656   -0.017639
     15          7           0        0.002562   -2.893063   -0.048955
     16          6           0       -2.849408    0.765462   -1.154964
     17          6           0       -3.129221    2.128216   -1.070659
     18          6           0       -3.243249    2.773500    0.173995
     19          6           0       -3.073691    2.014282    1.342303
     20          6           0       -2.793307    0.647565    1.283573
     21          6           0       -2.683597    0.044086    0.030555
     22          1           0       -2.775932    0.261712   -2.116912
     23          1           0       -3.267318    2.700909   -1.988731
     24          1           0       -3.166639    2.496416    2.315789
     25          1           0       -2.675669    0.056254    2.189706
     26         16           0       -2.328354   -1.708610   -0.060939
     27          8           0       -0.616931   -1.540258   -0.035089
     28          8           0       -2.702049   -2.243957   -1.386110
     29          8           0       -2.731260   -2.386795    1.187217
     30          6           0       -3.549480    4.249282    0.240710
     31          1           0       -2.780434    4.834058   -0.284358
     32          1           0       -4.512278    4.472358   -0.241500
     33          1           0       -3.597951    4.602769    1.277516
 ---------------------------------------------------------------------

 SCF Done:  E(RB3LYP) =  -1440.47932386     A.U. after    5 cycles

 The electronic state is 1-A.
 Alpha  occ. eigenvalues --  -89.14889 -19.23148 -19.19896 -19.19895 -19.17041
 Alpha  occ. eigenvalues --  -19.17021 -14.58715 -14.48942 -14.43507 -10.28124
 Alpha  occ. eigenvalues --  -10.27455 -10.25264 -10.24249 -10.24230 -10.24080
 Alpha  occ. eigenvalues --  -10.24015 -10.23834 -10.23390 -10.23376 -10.22424
 Alpha  occ. eigenvalues --  -10.22417 -10.21174  -8.17709  -6.14169  -6.13984
 Alpha  occ. eigenvalues --   -6.13847  -1.24910  -1.16226  -1.11940  -1.07637
 Alpha  occ. eigenvalues --   -1.02672  -1.01533  -0.92060  -0.90320  -0.84896
 Alpha  occ. eigenvalues --   -0.82316  -0.80240  -0.78819  -0.76551  -0.74355
 Alpha  occ. eigenvalues --   -0.69044  -0.66582  -0.66119  -0.64986  -0.61958
 Alpha  occ. eigenvalues --   -0.60635  -0.58462  -0.57505  -0.56131  -0.55370
 Alpha  occ. eigenvalues --   -0.54151  -0.51963  -0.51466  -0.51001  -0.49232
 Alpha  occ. eigenvalues --   -0.49062  -0.48356  -0.47324  -0.46997  -0.46470
 Alpha  occ. eigenvalues --   -0.46072  -0.45638  -0.45057  -0.44336  -0.41647
 Alpha  occ. eigenvalues --   -0.41060  -0.40054  -0.39853  -0.39428  -0.37960
 Alpha  occ. eigenvalues --   -0.37038  -0.35957  -0.34013  -0.33795  -0.33456
 Alpha  occ. eigenvalues --   -0.33199  -0.32435  -0.31635  -0.31408  -0.30392
 Alpha  occ. eigenvalues --   -0.29395  -0.29221  -0.28129
 Alpha virt. eigenvalues --   -0.12042  -0.08425  -0.07347  -0.05895  -0.05102
 Alpha virt. eigenvalues --   -0.02773  -0.02565  -0.01504  -0.00631  -0.00538
 Alpha virt. eigenvalues --    0.00326   0.00469   0.01156   0.01743   0.02085

 Mulliken atomic charges:
              1
     1  C    1.174790
     2  C    1.136364
     3  C   -0.395081
     4  C    0.963962
     5  C    1.251843
     6  C    0.519178
     7  H   -0.879032
     8  H   -0.879435
     9  H   -0.817873
    10  H   -0.849079
    11  N    0.747014
    12  O   -0.681105
    13  O   -0.679993
    14  N   -0.255113
    15  N   -0.104148
    16  C    0.477102
    17  C    1.338117
    18  C   -0.062043
    19  C    1.273451
    20  C    0.255273
    21  C    0.519019
    22  H   -1.022535
    23  H   -1.016158
    24  H   -1.007681
    25  H   -1.012564
    26  S    2.273957
    27  O   -0.723106
    28  O   -0.901958
    29  O   -0.892045
    30  C    0.878726
    31  H   -0.106058
    32  H   -0.103813
    33  H   -0.419973
 Sum of Mulliken atomic charges =   0.00000

 Dipole moment (field-independent basis, Debye):
    X=             -1.7095    Y=              3.7157    Z=              0.3354  Tot=              4.1038
 Quadrupole moment (field-independent basis, Debye-Ang):
   XX=           -151.6557   YY=           -144.3731   ZZ=           -127.0390
   XY=            -36.6381   XZ=              1.2647   YZ=             -1.3964

  Exact polarizability: 246.038   9.391 256.472  13.456  -9.988 193.838
 Approx polarizability: 331.459  25.878 403.581  36.359 -29.844 377.920

                     1                      2                      3
                     A                      A                      A
 Frequencies --    13.1835                15.9058                24.7026
 Red. masses --     5.6896                 7.1567                 5.1881
 Frc consts  --     0.0006                 0.0011                 0.0019
 IR Inten    --     0.3341                 1.3438                 0.8893

                     4                      5                      6
                     A                      A                      A
 Frequencies --    32.2773                51.1599                57.4163
 Red. masses --     4.2863                 4.2144                 1.2875
 Frc consts  --     0.0026                 0.0065                 0.0025
 IR Inten    --     0.7311                 0.8211                 0.3840

                     7                      8                      9
                     A                      A                      A
 Frequencies --    59.9672                74.1150               109.4772
 Red. masses --     5.5546                11.0747                 5.6871
 Frc consts  --     0.0118                 0.0358                 0.0402
 IR Inten    --     0.9137                 3.0571                 2.4310

                    10                     11                     12
                     A                      A                      A
 Frequencies --   143.3354               159.8853               185.7930
 Red. masses --     7.4972                 6.8384                10.3566
 Frc consts  --     0.0908                 0.1030                 0.2106
 IR Inten    --     1.3346                 1.4267                 9.2567

                    13                     14                     15
                     A                      A                      A
 Frequencies --   206.3579               267.8391               274.9051
 Red. masses --     8.3228                 7.1295                 7.5369
 Frc consts  --     0.2088                 0.3013                 0.3356
 IR Inten    --     9.8770                 3.8198                 0.2081

                    16                     17                     18
                     A                      A                      A
 Frequencies --   293.8776               301.6448               337.4801
 Red. masses --     6.4988                 6.1585                 6.1869
 Frc consts  --     0.3307                 0.3302                 0.4152
 IR Inten    --     0.8493                 0.6908                 2.0549

                    19                     20                     21
                     A                      A                      A
 Frequencies --   346.9446               363.2128               414.6615
 Red. masses --    10.9224                 3.6484                 2.9689
 Frc consts  --     0.7746                 0.2836                 0.3008
 IR Inten    --    38.6158                 2.2393                13.8903

                    22                     23                     24
                     A                      A                      A
 Frequencies --   415.0252               437.1260               450.2183
 Red. masses --     2.9014                 6.5386                 7.8056
 Frc consts  --     0.2944                 0.7361                 0.9322
 IR Inten    --     3.0480                11.5955                 8.2211

                    25                     26                     27
                     A                      A                      A
 Frequencies --   458.0130               476.8953               516.4678
 Red. masses --    12.4736                 4.0321                 4.6185
 Frc consts  --     1.5417                 0.5403                 0.7258
 IR Inten    --  1097.2354                 1.4932                21.9666

                    28                     29                     30
                     A                      A                      A
 Frequencies --   525.8900               539.0640               581.9515
 Red. masses --     6.1401                 7.5554                 7.2980
 Frc consts  --     1.0005                 1.2936                 1.4562
 IR Inten    --    26.4031               218.3965                54.7223

                    31                     32                     33
                     A                      A                      A
 Frequencies --   596.0070               634.7713               643.5683
 Red. masses --     6.2866                 6.9127                 6.9558
 Frc consts  --     1.3157                 1.6411                 1.6974
 IR Inten    --     4.0454                 1.0690                 1.8644

                    34                     35                     36
                     A                      A                      A
 Frequencies --   653.9483               656.9081               705.0739
 Red. masses --     7.6775                 7.7680                 3.6574
 Frc consts  --     1.9344                 1.9750                 1.0713
 IR Inten    --   122.3093                36.8749                19.8496

                    37                     38                     39
                     A                      A                      A
 Frequencies --   719.4003               770.0201               783.7205
 Red. masses --     3.3369                 4.7804                 7.2492
 Frc consts  --     1.0175                 1.6700                 2.6234
 IR Inten    --     2.5983                26.5538                10.3603

                    40                     41                     42
                     A                      A                      A
 Frequencies --   813.4188               824.8194               833.3743
 Red. masses --     5.0953                 1.3924                 1.2642
 Frc consts  --     1.9863                 0.5581                 0.5173
 IR Inten    --     7.9175                36.4960                 0.6894

                    43                     44                     45
                     A                      A                      A
 Frequencies --   844.2428               857.3882               868.1544
 Red. masses --     1.2458                 2.2372                 8.8263
 Frc consts  --     0.5232                 0.9689                 3.9194
 IR Inten    --     0.0125                22.3970                39.7581

                    46                     47                     48
                     A                      A                      A
 Frequencies --   928.0291               967.5886               980.5430
 Red. masses --     5.5346                 1.2988                 1.3890
 Frc consts  --     2.8084                 0.7164                 0.7869
 IR Inten    --    26.5011                 0.4944                 0.0285

                    49                     50                     51
                     A                      A                      A
 Frequencies --   988.6889               990.4942              1003.6806
 Red. masses --     1.3686                 1.3778                 1.4346
 Frc consts  --     0.7882                 0.7964                 0.8515
 IR Inten    --     0.0523                 0.0315                 3.0352

                    52                     53                     54
                     A                      A                      A
 Frequencies --  1023.5637              1025.5717              1052.2650
 Red. masses --     2.7730                 3.7733                 1.5973
 Frc consts  --     1.7117                 2.3383                 1.0420
 IR Inten    --     2.2000                18.0982                 3.8840

                    55                     56                     57
                     A                      A                      A
 Frequencies --  1071.6967              1119.2863              1120.0450
 Red. masses --     3.9174                 1.6827                 1.8371
 Frc consts  --     2.6509                 1.2420                 1.3579
 IR Inten    --    69.2997                23.3384                45.4509

                    58                     59                     60
                     A                      A                      A
 Frequencies --  1125.6363              1132.2623              1173.9848
 Red. masses --     5.3124                 1.3036                 2.0165
 Frc consts  --     3.9658                 0.9846                 1.6375
 IR Inten    --   188.3810                 9.7394                 7.0763

                    61                     62                     63
                     A                      A                      A
 Frequencies --  1195.2345              1198.9138              1230.2855
 Red. masses --     1.9258                 1.1797                 2.9690
 Frc consts  --     1.6210                 0.9991                 2.6478
 IR Inten    --     0.5454                 2.6334                 2.5938

                    64                     65                     66
                     A                      A                      A
 Frequencies --  1278.5724              1307.0274              1320.9225
 Red. masses --    17.2182                 1.3031                 1.2792
 Frc consts  --    16.5840                 1.3115                 1.3151
 IR Inten    --   153.7632                 2.5281                 0.2021

                    67                     68                     69
                     A                      A                      A
 Frequencies --  1350.8896              1362.8522              1380.3518
 Red. masses --     8.2989                 9.7856                14.2216
 Frc consts  --     8.9230                10.7086                15.9654
 IR Inten    --     0.8034                21.1074               366.9251

                    70                     71                     72
                     A                      A                      A
 Frequencies --  1399.0141              1426.5565              1436.2314
 Red. masses --     1.2602                 2.4140                 3.4234
 Frc consts  --     1.4532                 2.8945                 4.1606
 IR Inten    --     2.0169                 6.7623                 0.1676

                    73                     74                     75
                     A                      A                      A
 Frequencies --  1461.8469              1475.4638              1502.9869
 Red. masses --     1.0422                 1.1678                 2.3766
 Frc consts  --     1.3123                 1.4979                 3.1632
 IR Inten    --     6.7017                17.3504                16.8411

                    76                     77                     78
                     A                      A                      A
 Frequencies --  1516.0090              1588.1080              1617.9317
 Red. masses --     2.3981                12.1362                 6.6316
 Frc consts  --     3.2472                18.0341                10.2279
 IR Inten    --     7.3891               172.8816                 0.8433

                    79                     80                     81
                     A                      A                      A
 Frequencies --  1629.8141              1638.4029              1647.1112
 Red. masses --     6.1945                 5.8269                 8.9012
 Frc consts  --     9.6947                 9.2157                14.2280
 IR Inten    --    44.7741                32.0281                81.8482

                    82                     83                     84
                     A                      A                      A
 Frequencies --  1721.6306              3033.3272              3091.4281
 Red. masses --    13.5455                 1.0375                 1.1001
 Frc consts  --    23.6551                 5.6246                 6.1941
 IR Inten    --   152.6116                16.8970                 9.1116

                    85                     86                     87
                     A                      A                      A
 Frequencies --  3124.3541              3177.9868              3183.7167
 Red. masses --     1.1013                 1.0901                 1.0902
 Frc consts  --     6.3341                 6.4869                 6.5107
 IR Inten    --    12.6143                 7.4457                 7.3121

                    88                     89                     90
                     A                      A                      A
 Frequencies --  3207.2666              3214.3745              3215.0652
 Red. masses --     1.0912                 1.0935                 1.0945
 Frc consts  --     6.6135                 6.6565                 6.6654
 IR Inten    --     0.3020                 0.3428                 3.2774

                    91                     92                     93
                     A                      A                      A
 Frequencies --  3217.3125              3234.7030              3235.4271
 Red. masses --     1.0905                 1.0942                 1.0948
 Frc consts  --     6.6506                 6.7455                 6.7520
 IR Inten    --     0.2575                 2.5395                 4.4077

 - Thermochemistry -
 -------------------
 Temperature   298.150 Kelvin.  Pressure   1.00000 Atm.
 Atom     1 has atomic number  6 and mass  12.00000

 Molecular mass:   321.04194 amu.
 Principal axes and moments of inertia in atomic units:
                           1         2         3
     Eigenvalues --  5502.99795********************
           X            0.99916  -0.04098   0.00071
           Y            0.04098   0.99916  -0.00114
           Z           -0.00066   0.00116   1.00000
 This molecule is an asymmetric top.
 Rotational symmetry number  1.
 Warning -- assumption of classical behavior for rotation
           may cause significant error
 Rotational temperatures (Kelvin)      0.01574     0.00729     0.00554
 Rotational constants (GHZ):           0.32796     0.15180     0.11548
 Zero-point vibrational energy     608086.1 (Joules/Mol)
                                  145.33607 (Kcal/Mol)
 Warning -- explicit consideration of  31 degrees of freedom as
           vibrations may cause significant error
 Vibrational temperatures:     18.97    22.88    35.54    46.44    73.61
          (Kelvin)             82.61    86.28   106.63   157.51   206.23
                              230.04   267.31   296.90   385.36   395.53
                              422.82   434.00   485.56   499.18   522.58
                              596.60   597.13   628.93   647.76   658.98
                              686.15   743.08   756.64   775.59   837.30
                              857.52   913.29   925.95   940.88   945.14
                             1014.44  1035.06  1107.89  1127.60  1170.33
                             1186.73  1199.04  1214.68  1233.59  1249.08
                             1335.23  1392.14  1410.78  1422.50  1425.10
                             1444.07  1472.68  1475.57  1513.97  1541.93
                             1610.40  1611.49  1619.54  1629.07  1689.10
                             1719.67  1724.97  1770.10  1839.58  1880.52
                             1900.51  1943.63  1960.84  1986.02  2012.87
                             2052.49  2066.41  2103.27  2122.86  2162.46
                             2181.20  2284.93  2327.84  2344.94  2357.29
                             2369.82  2477.04  4364.28  4447.87  4495.24
                             4572.41  4580.65  4614.54  4624.76  4625.76
                             4628.99  4654.01  4655.05

 Zero-point correction=                           0.231608 (Hartree/Particle)
 Thermal correction to Energy=                    0.251809
 Thermal correction to Enthalpy=                  0.252753
 Thermal correction to Gibbs Free Energy=         0.177638
 Sum of electronic and zero-point Energies=          -1440.247716
 Sum of electronic and thermal Energies=             -1440.227515
 Sum of electronic and thermal Enthalpies=           -1440.226570
 Sum of electronic and thermal Free Energies=        -1440.301686

                     E (Thermal)             CV                S
                      KCal/Mol        Cal/Mol-Kelvin    Cal/Mol-Kelvin
 Total                  158.013             74.267            158.094
 Electronic               0.000              0.000              0.000
 Translational            0.889              2.981             43.195
 Rotational               0.889              2.981             35.279
 Vibrational            156.235             68.306             79.620
 Vibration     1          0.593              1.987              7.462
 Vibration     2          0.593              1.986              7.089
 Vibration     3          0.593              1.985              6.215
 Vibration     4          0.594              1.983              5.684
 Vibration     5          0.595              1.977              4.772
 Vibration     6          0.596              1.975              4.544
 Vibration     7          0.597              1.973              4.458
 Vibration     8          0.599              1.966              4.041
 Vibration     9          0.606              1.942              3.278
 Vibration    10          0.616              1.910              2.759
 Vibration    11          0.622              1.891              2.551
 Vibration    12          0.632              1.859              2.269
 Vibration    13          0.641              1.831              2.076
 Vibration    14          0.673              1.732              1.610
 Vibration    15          0.677              1.720              1.565
 Vibration    16          0.689              1.685              1.452
 Vibration    17          0.694              1.671              1.408
 Vibration    18          0.718              1.601              1.224
 Vibration    19          0.725              1.581              1.180
 Vibration    20          0.737              1.548              1.108
 Vibration    21          0.778              1.438              0.910
 Vibration    22          0.778              1.438              0.909
 Vibration    23          0.797              1.389              0.836
 Vibration    24          0.809              1.360              0.795
 Vibration    25          0.816              1.343              0.772
 Vibration    26          0.833              1.301              0.718
 Vibration    27          0.871              1.214              0.618
 Vibration    28          0.881              1.193              0.596
 Vibration    29          0.894              1.164              0.567
 Vibration    30          0.939              1.070              0.482
 Vibration    31          0.954              1.040              0.457

 Normal termination of Gaussian 09 at Tue Apr 18 23:17:30 2017.
