 Gaussian 09, Revision B.01,
 Gaussian 09:  EM64L-G09RevB.01 12-Aug-2010

 ----------------------------------------------------------------------
 #p Temperature=348.15 SCF=(maxcycles=1024,conver=6) int=(grid=ultrafin
 e) CPHF=(grid=fine) freq rb3lyp/aug-cc-pvdz
 ----------------------------------------------------------------------

 ---------------------------------
 p-NO2-Ph-OTs-RB3LYP-aug-cc-pVDZ--
 ---------------------------------
 Symbolic Z-matrix:
 Charge =  0 Multiplicity = 1

                         Standard orientation:
 ---------------------------------------------------------------------
 Center     Atomic      Atomic             Coordinates (Angstroms)
 Number     Number       Type             X           Y           Z
 ---------------------------------------------------------------------
      1          6           0       -3.359399    1.218041   -0.366850
      2          6           0       -1.965969    1.216421   -0.368130
      3          6           0       -1.282479   -0.003899   -0.357690
      4          6           0       -1.965079   -1.224559   -0.334650
      5          6           0       -3.358509   -1.227109   -0.333270
      6          6           0       -4.033899   -0.004798   -0.351110
      7          1           0       -1.402999    2.147141   -0.377750
      8          1           0       -1.401490   -2.154809   -0.318680
      9          1           0       -3.924080   -2.155058   -0.318770
     10          6           0        3.225441   -1.218659    0.103940
     11          6           0        4.513041   -1.212039   -0.428830
     12          6           0        5.181201   -0.005720   -0.706510
     13          6           0        4.525081    1.204131   -0.432570
     14          6           0        3.234581    1.223411    0.101040
     15          6           0        2.604221    0.006641    0.359330
     16          1           0        2.713640   -2.151629    0.331550
     17          1           0        5.010740   -2.161880   -0.628620
     18          1           0        5.030491    2.148800   -0.634710
     19          1           0        2.731091    2.161661    0.325500
     20         16           0        0.955931    0.014731    1.051930
     21          8           0        0.667581    1.307791    1.708680
     22          8           0        0.668161   -1.261979    1.740230
     23          8           0        0.106781   -0.004299   -0.442240
     24          6           0        6.576351   -0.023720   -1.280400
     25          1           0        7.271331   -0.544800   -0.606120
     26          1           0        6.597941   -0.555430   -2.242660
     27          1           0        6.956651    0.991720   -1.443150
     28          1           0       -3.925629    2.145632   -0.377820
     29          7           0       -5.508709   -0.005398   -0.355770
     30          8           0       -6.080809   -1.093068   -0.343230
     31          8           0       -6.081599    1.081792   -0.372820
 ---------------------------------------------------------------------

 SCF Done:  E(RB3LYP) =  -1331.04309839     A.U. after   23 cycles

 The electronic state is 1-A.
 Alpha  occ. eigenvalues --  -89.15245 -19.21800 -19.18842 -19.18842 -19.17515
 Alpha  occ. eigenvalues --  -19.17512 -14.57655 -10.28429 -10.26237 -10.25545
 Alpha  occ. eigenvalues --  -10.24010 -10.23597 -10.23590 -10.23005 -10.23003
 Alpha  occ. eigenvalues --  -10.22600 -10.22596 -10.22465 -10.22463 -10.21341
 Alpha  occ. eigenvalues --   -8.18076  -6.14534  -6.14353  -6.14211  -1.23842
 Alpha  occ. eigenvalues --   -1.15226  -1.06711  -1.06552  -1.03053  -0.90638
 Alpha  occ. eigenvalues --   -0.90169  -0.82980  -0.81381  -0.79022  -0.78943
 Alpha  occ. eigenvalues --   -0.75194  -0.71412  -0.67479  -0.65352  -0.65189
 Alpha  occ. eigenvalues --   -0.62232  -0.60285  -0.57733  -0.56896  -0.54713
 Alpha  occ. eigenvalues --   -0.54303  -0.53086  -0.51370  -0.50530  -0.50094
 Alpha  occ. eigenvalues --   -0.48573  -0.47785  -0.47768  -0.46976  -0.46291
 Alpha  occ. eigenvalues --   -0.46054  -0.45227  -0.43183  -0.41832  -0.40586
 Alpha  occ. eigenvalues --   -0.39999  -0.39923  -0.39524  -0.38164  -0.36979
 Alpha  occ. eigenvalues --   -0.36882  -0.34439  -0.34203  -0.32422  -0.32169
 Alpha  occ. eigenvalues --   -0.31732  -0.30346  -0.29536  -0.29089  -0.29036
 Alpha  occ. eigenvalues --   -0.28472
 Alpha virt. eigenvalues --   -0.10608  -0.07361  -0.05314  -0.04607  -0.02996
 Alpha virt. eigenvalues --   -0.02270  -0.01151  -0.00579   0.00108   0.00444
 Alpha virt. eigenvalues --    0.00799   0.01261   0.02152   0.02422   0.02658

 Mulliken atomic charges:
              1
     1  C    1.375616
     2  C    0.938453
     3  C   -0.674876
     4  C    0.947071
     5  C    1.375429
     6  C    0.602646
     7  H   -0.877171
     8  H   -0.877578
     9  H   -0.856478
    10  C    0.590262
    11  C    1.150373
    12  C   -0.247593
    13  C    1.125296
    14  C    0.386794
    15  C    0.815359
    16  H   -1.010779
    17  H   -0.992857
    18  H   -0.997314
    19  H   -1.007038
    20  S    2.152284
    21  O   -0.919408
    22  O   -0.917397
    23  O   -0.917020
    24  C    0.973257
    25  H   -0.107283
    26  H   -0.100925
    27  H   -0.422779
    28  H   -0.857028
    29  N    0.708441
    30  O   -0.678847
    31  O   -0.678908
 Sum of Mulliken atomic charges =   0.00000

 Dipole moment (field-independent basis, Debye):
    X=              8.7514    Y=             -0.0750    Z=             -2.9659  Tot=              9.2406
 Quadrupole moment (field-independent basis, Debye-Ang):
   XX=           -130.5751   YY=           -115.5109   ZZ=           -130.4771
   XY=             -0.3339   XZ=             -7.3524   YZ=             -0.0421

  Exact polarizability: 324.666  -0.600 195.644 -16.683  -0.294 130.286
 Approx polarizability: 406.372  -1.114 387.295 -27.707  -1.060 214.454

                     1                      2                      3
                     A                      A                      A
 Frequencies --     5.6378                20.8636                28.9606
 Red. masses --     5.4393                 4.5968                 7.0707
 Frc consts  --     0.0001                 0.0012                 0.0035
 IR Inten    --     0.1612                 0.0022                 0.2489

                     4                      5                      6
                     A                      A                      A
 Frequencies --    37.3114                56.4789                58.7819
 Red. masses --     5.7438                 1.1410                 7.5469
 Frc consts  --     0.0047                 0.0021                 0.0154
 IR Inten    --     0.4464                 0.3073                 0.0039

                     7                      8                      9
                     A                      A                      A
 Frequencies --    69.0765               136.3432               148.2068
 Red. masses --     5.3930                 8.3155                 4.8301
 Frc consts  --     0.0152                 0.0911                 0.0625
 IR Inten    --     0.8645                 4.4177                 0.4274

                    10                     11                     12
                     A                      A                      A
 Frequencies --   157.1201               205.9163               267.4679
 Red. masses --     6.5351                11.1687                 7.0653
 Frc consts  --     0.0951                 0.2790                 0.2978
 IR Inten    --     0.6700                 2.4391                 6.2007

                    13                     14                     15
                     A                      A                      A
 Frequencies --   281.6664               289.5936               316.9900
 Red. masses --     6.8248                 7.5615                 5.7875
 Frc consts  --     0.3190                 0.3736                 0.3426
 IR Inten    --     0.4825                 1.8408                 7.9731

                    16                     17                     18
                     A                      A                      A
 Frequencies --   339.0478               388.5107               409.4883
 Red. masses --     3.6545                 7.9219                 4.7811
 Frc consts  --     0.2475                 0.7045                 0.4723
 IR Inten    --     0.7225                 3.3013                 1.0128

                    19                     20                     21
                     A                      A                      A
 Frequencies --   414.1462               425.6109               443.6001
 Red. masses --     2.8685                 2.9425                 6.9731
 Frc consts  --     0.2899                 0.3140                 0.8085
 IR Inten    --     0.0314                 0.0627                 0.8613

                    22                     23                     24
                     A                      A                      A
 Frequencies --   466.4290               491.5990               508.8253
 Red. masses --    10.0556                 3.5436                 4.7599
 Frc consts  --     1.2889                 0.5046                 0.7261
 IR Inten    --     8.1686                 5.8294                61.7552

                    25                     26                     27
                     A                      A                      A
 Frequencies --   533.7749               553.2316               610.6913
 Red. masses --     6.7450                 5.4993                 5.6059
 Frc consts  --     1.1323                 0.9917                 1.2318
 IR Inten    --     0.1157               148.6852                72.8419

                    28                     29                     30
                     A                      A                      A
 Frequencies --   639.4266               642.7483               644.8435
 Red. masses --     7.2590                 6.8408                 6.8350
 Frc consts  --     1.7487                 1.6651                 1.6745
 IR Inten    --     0.0029                 3.6819                 6.6256

                    31                     32                     33
                     A                      A                      A
 Frequencies --   683.0761               706.5128               717.8679
 Red. masses --     8.2957                 3.3882                 3.3007
 Frc consts  --     2.2806                 0.9965                 1.0022
 IR Inten    --   359.9607                46.2935                 6.8180

                    34                     35                     36
                     A                      A                      A
 Frequencies --   780.6916               813.0596               821.9117
 Red. masses --     5.6484                 5.1767                 1.7013
 Frc consts  --     2.0283                 2.0163                 0.6771
 IR Inten    --    21.2898                 1.9882                24.9777

                    37                     38                     39
                     A                      A                      A
 Frequencies --   825.7960               830.0121               843.6605
 Red. masses --     1.2426                 3.6684                 1.2460
 Frc consts  --     0.4993                 1.4890                 0.5225
 IR Inten    --     0.3007                86.7170                 0.0970

                    40                     41                     42
                     A                      A                      A
 Frequencies --   872.8624               880.8129               969.7229
 Red. masses --     9.0698                 1.9861                 1.2991
 Frc consts  --     4.0714                 0.9078                 0.7198
 IR Inten    --   138.1382                35.4521                 0.1201

                    43                     44                     45
                     A                      A                      A
 Frequencies --   980.2300               988.5720               992.3350
 Red. masses --     1.3809                 1.3628                 1.3786
 Frc consts  --     0.7818                 0.7847                 0.7998
 IR Inten    --     1.4635                 0.2139                 0.0265

                    46                     47                     48
                     A                      A                      A
 Frequencies --  1003.7858              1021.9243              1024.9598
 Red. masses --     1.4427                 2.6989                 3.8050
 Frc consts  --     0.8565                 1.6606                 2.3551
 IR Inten    --     4.5719                11.9858                13.6883

                    49                     50                     51
                     A                      A                      A
 Frequencies --  1052.2688              1066.2490              1111.3786
 Red. masses --     1.5987                 4.0879                 1.2237
 Frc consts  --     1.0430                 2.7382                 0.8905
 IR Inten    --     3.8016                64.5551                 9.9801

                    52                     53                     54
                     A                      A                      A
 Frequencies --  1119.2885              1122.3777              1133.0313
 Red. masses --     2.9640                 4.8832                 1.2951
 Frc consts  --     2.1878                 3.6244                 0.9796
 IR Inten    --    69.4926               106.9923                 8.3018

                    55                     56                     57
                     A                      A                      A
 Frequencies --  1168.0145              1199.2105              1211.9106
 Red. masses --     1.3508                 1.1808                 3.7346
 Frc consts  --     1.0858                 1.0005                 3.2318
 IR Inten    --    67.4372                21.8434               209.4125

                    58                     59                     60
                     A                      A                      A
 Frequencies --  1230.5407              1268.8244              1295.5971
 Red. masses --     3.0001                14.3388                 1.3152
 Frc consts  --     2.6766                13.6009                 1.3007
 IR Inten    --     0.4801               128.1860                 5.5926

                    61                     62                     63
                     A                      A                      A
 Frequencies --  1321.7444              1351.0982              1366.1613
 Red. masses --     1.2759                 8.2938                 9.9528
 Frc consts  --     1.3133                 8.9202                10.9445
 IR Inten    --     0.3896                 1.1743                21.4347

                    64                     65                     66
                     A                      A                      A
 Frequencies --  1380.9964              1399.0066              1426.8443
 Red. masses --    14.2500                 1.2601                 2.4065
 Frc consts  --    16.0122                 1.4531                 2.8866
 IR Inten    --   407.2981                 2.1298                 6.4778

                    67                     68                     69
                     A                      A                      A
 Frequencies --  1435.1191              1461.7799              1475.4852
 Red. masses --     3.5908                 1.0422                 1.1692
 Frc consts  --     4.3573                 1.3121                 1.4997
 IR Inten    --     0.0756                 6.8221                16.7105

                    70                     71                     72
                     A                      A                      A
 Frequencies --  1504.0174              1516.9738              1587.7790
 Red. masses --     2.4993                 2.3958                12.4652
 Frc consts  --     3.3310                 3.2483                18.5153
 IR Inten    --    86.5763                 8.9649               188.5362

                    73                     74                     75
                     A                      A                      A
 Frequencies --  1618.8180              1631.4341              1638.8120
 Red. masses --     6.6361                 6.2810                 5.8328
 Frc consts  --    10.2461                 9.8495                 9.2296
 IR Inten    --     1.0005                85.2501                31.5070

                    76                     77                     78
                     A                      A                      A
 Frequencies --  1649.9732              3033.3440              3091.5790
 Red. masses --     8.8147                 1.0375                 1.1000
 Frc consts  --    14.1388                 5.6246                 6.1947
 IR Inten    --    67.5647                18.5045                 9.3095

                    79                     80                     81
                     A                      A                      A
 Frequencies --  3124.4125              3178.8418              3184.1626
 Red. masses --     1.1013                 1.0902                 1.0903
 Frc consts  --     6.3345                 6.4905                 6.5129
 IR Inten    --    13.1330                 7.8909                 8.0970

                    82                     83                     84
                     A                      A                      A
 Frequencies --  3215.8841              3216.5607              3217.7434
 Red. masses --     1.0935                 1.0945                 1.0908
 Frc consts  --     6.6628                 6.6717                 6.6540
 IR Inten    --     0.0996                 3.9318                 0.3487

                    85                     86                     87
                     A                      A                      A
 Frequencies --  3218.4098              3235.4318              3236.2321
 Red. masses --     1.0908                 1.0943                 1.0952
 Frc consts  --     6.6568                 6.7490                 6.7580
 IR Inten    --     0.2331                 1.8692                 5.0420

 - Thermochemistry -
 -------------------
 Temperature   348.150 Kelvin.  Pressure   1.00000 Atm.
 Atom     1 has atomic number  6 and mass  12.00000

 Molecular mass:   293.03579 amu.
 Principal axes and moments of inertia in atomic units:
                           1         2         3
     Eigenvalues --  1646.81984********************
           X            0.99997  -0.00018  -0.00768
           Y            0.00017   1.00000  -0.00131
           Z            0.00768   0.00131   0.99997
 This molecule is an asymmetric top.
 Rotational symmetry number  1.
 Warning -- assumption of classical behavior for rotation
           may cause significant error
 Rotational temperatures (Kelvin)      0.05259     0.00561     0.00550
 Rotational constants (GHZ):           1.09589     0.11680     0.11460
 Zero-point vibrational energy     586454.4 (Joules/Mol)
                                  140.16596 (Kcal/Mol)
 Warning -- explicit consideration of  33 degrees of freedom as
           vibrations may cause significant error
 Vibrational temperatures:      8.11    30.02    41.67    53.68    81.26
          (Kelvin)             84.57    99.39   196.17   213.24   226.06
                              296.27   384.83   405.25   416.66   456.08
                              487.81   558.98   589.16   595.86   612.36
                              638.24   671.09   707.30   732.09   767.98
                              795.98   878.65   919.99   924.77   927.78
                              982.79  1016.51  1032.85  1123.24  1169.81
                             1182.55  1188.13  1194.20  1213.84  1255.85
                             1267.29  1395.21  1410.33  1422.33  1427.75
                             1444.22  1470.32  1474.69  1513.98  1534.09
                             1599.02  1610.40  1614.85  1630.18  1680.51
                             1725.39  1743.67  1770.47  1825.55  1864.07
                             1901.69  1943.93  1965.60  1986.94  2012.86
                             2052.91  2064.81  2103.17  2122.89  2163.94
                             2182.58  2284.46  2329.12  2347.27  2357.88
                             2373.94  4364.30  4448.09  4495.33  4573.64
                             4581.29  4626.93  4627.91  4629.61  4630.57
                             4655.06  4656.21

 Zero-point correction=                           0.223369 (Hartree/Particle)
 Thermal correction to Energy=                    0.247142
 Thermal correction to Enthalpy=                  0.248245
 Thermal correction to Gibbs Free Energy=         0.159779
 Sum of electronic and zero-point Energies=          -1330.819730
 Sum of electronic and thermal Energies=             -1330.795956
 Sum of electronic and thermal Enthalpies=           -1330.794854
 Sum of electronic and thermal Free Energies=        -1330.883319

                     E (Thermal)             CV                S
                      KCal/Mol        Cal/Mol-Kelvin    Cal/Mol-Kelvin
 Total                  155.084             76.416            159.451
 Electronic               0.000              0.000              0.000
 Translational            1.038              2.981             43.693
 Rotational               1.038              2.981             34.811
 Vibrational            153.008             70.454             80.948
 Vibration     1          0.692              1.987              9.458
 Vibration     2          0.692              1.986              6.858
 Vibration     3          0.693              1.985              6.207
 Vibration     4          0.693              1.983              5.704
 Vibration     5          0.695              1.978              4.883
 Vibration     6          0.695              1.977              4.804
 Vibration     7          0.697              1.974              4.485
 Vibration     8          0.710              1.935              3.153
 Vibration     9          0.713              1.926              2.992
 Vibration    10          0.716              1.919              2.880
 Vibration    11          0.733              1.872              2.367
 Vibration    12          0.761              1.797              1.886
 Vibration    13          0.768              1.777              1.794
 Vibration    14          0.773              1.766              1.745
 Vibration    15          0.788              1.726              1.587
 Vibration    16          0.801              1.692              1.472
 Vibration    17          0.834              1.610              1.247
 Vibration    18          0.850              1.574              1.163
 Vibration    19          0.853              1.566              1.145
 Vibration    20          0.862              1.545              1.103
 Vibration    21          0.876              1.513              1.040
 Vibration    22          0.894              1.471              0.965
 Vibration    23          0.915              1.425              0.889
 Vibration    24          0.930              1.392              0.840
 Vibration    25          0.952              1.345              0.775
 Vibration    26          0.970              1.308              0.727
 Vibration    27          1.025              1.199              0.603
 Vibration    28          1.054              1.145              0.549
 Vibration    29          1.058              1.139              0.543
 Vibration    30          1.060              1.135              0.540
 Vibration    31          1.100              1.064              0.476
 Vibration    32          1.125              1.021              0.441
 Vibration    33          1.138              1.001              0.425

 Normal termination of Gaussian 09 at Tue May  2 16:56:10 2017.
